# vtk DataFile Version 3.0
#This file was generated by the deal.II library on 2020/3/17 at 13:08:23
ASCII
DATASET UNSTRUCTURED_GRID

POINTS 34864 double
0.75 -1 0
1 -1 0
0.75 -0.75 0
1 -0.75 0
-1 0.75 0
-0.75 0.75 0
-1 1 0
-0.75 1 0
-0.625 -1 0
-0.5 -1 0
-0.625 -0.875 0
-0.5 -0.875 0
0.5 0.875 0
0.625 0.875 0
0.5 1 0
0.625 1 0
0.625 -0.75 0
0.75 -0.75 0
0.625 -0.625 0
0.75 -0.625 0
0.5 -0.625 0
0.625 -0.625 0
0.5 -0.5 0
0.625 -0.5 0
-0.625 0.5 0
-0.5 0.5 0
-0.625 0.625 0
-0.5 0.625 0
-0.75 0.625 0
-0.625 0.625 0
-0.75 0.75 0
-0.625 0.75 0
-1 -1 0
-0.875 -1 0
-1 -0.875 0
-0.875 -0.875 0
0.375 -1 0
0.5 -1 0
0.375 -0.875 0
0.5 -0.875 0
-0.5 0.875 0
-0.375 0.875 0
-0.5 1 0
-0.375 1 0
0.875 0.875 0
1 0.875 0
0.875 1 0
1 1 0
0.5 -1 0
0.625 -1 0
0.5 -0.875 0
0.625 -0.875 0
0.625 -1 0
0.75 -1 0
0.625 -0.875 0
0.75 -0.875 0
0.5 -0.875 0
0.625 -0.875 0
0.5 -0.75 0
0.625 -0.75 0
0.625 -0.875 0
0.75 -0.875 0
0.625 -0.75 0
0.75 -0.75 0
0.75 -0.75 0
0.875 -0.75 0
0.75 -0.625 0
0.875 -0.625 0
0.875 -0.75 0
1 -0.75 0
0.875 -0.625 0
1 -0.625 0
0.875 -0.625 0
1 -0.625 0
0.875 -0.5 0
1 -0.5 0
-1 0.5 0
-0.875 0.5 0
-1 0.625 0
-0.875 0.625 0
-1 0.625 0
-0.875 0.625 0
-1 0.75 0
-0.875 0.75 0
-0.875 0.625 0
-0.75 0.625 0
-0.875 0.75 0
-0.75 0.75 0
-0.75 0.75 0
-0.625 0.75 0
-0.75 0.875 0
-0.625 0.875 0
-0.625 0.75 0
-0.5 0.75 0
-0.625 0.875 0
-0.5 0.875 0
-0.75 0.875 0
-0.625 0.875 0
-0.75 1 0
-0.625 1 0
-0.625 0.875 0
-0.5 0.875 0
-0.625 1 0
-0.5 1 0
0.1875 -0.25 0
0.25 -0.25 0
0.1875 -0.1875 0
0.25 -0.1875 0
-0.25 0.1875 0
-0.1875 0.1875 0
-0.25 0.25 0
-0.1875 0.25 0
0.25 -0.125 0
0.3125 -0.125 0
0.25 -0.0625 0
0.3125 -0.0625 0
-0.5 -0.4375 0
-0.4375 -0.4375 0
-0.5 -0.375 0
-0.4375 -0.375 0
-0.4375 -0.4375 0
-0.375 -0.4375 0
-0.4375 -0.375 0
-0.375 -0.375 0
0.4375 -0.4375 0
0.5 -0.4375 0
0.4375 -0.375 0
0.5 -0.375 0
-0.5 0.375 0
-0.4375 0.375 0
-0.5 0.4375 0
-0.4375 0.4375 0
0.375 0.375 0
0.4375 0.375 0
0.375 0.4375 0
0.4375 0.4375 0
0.4375 0.375 0
0.5 0.375 0
0.4375 0.4375 0
0.5 0.4375 0
0.625 -0.5 0
0.6875 -0.5 0
0.625 -0.4375 0
0.6875 -0.4375 0
0.625 -0.4375 0
0.6875 -0.4375 0
0.625 -0.375 0
0.6875 -0.375 0
-0.6875 0.375 0
-0.625 0.375 0
-0.6875 0.4375 0
-0.625 0.4375 0
-0.6875 0.4375 0
-0.625 0.4375 0
-0.6875 0.5 0
-0.625 0.5 0
-0.75 -0.75 0
-0.6875 -0.75 0
-0.75 -0.6875 0
-0.6875 -0.6875 0
-0.6875 -0.75 0
-0.625 -0.75 0
-0.6875 -0.6875 0
-0.625 -0.6875 0
-0.75 -0.6875 0
-0.6875 -0.6875 0
-0.75 -0.625 0
-0.6875 -0.625 0
-0.6875 -0.6875 0
-0.625 -0.6875 0
-0.6875 -0.625 0
-0.625 -0.625 0
-0.6875 -0.625 0
-0.625 -0.625 0
-0.6875 -0.5625 0
-0.625 -0.5625 0
0.625 0.5625 0
0.6875 0.5625 0
0.625 0.625 0
0.6875 0.625 0
0.625 0.625 0
0.6875 0.625 0
0.625 0.6875 0
0.6875 0.6875 0
0.6875 0.625 0
0.75 0.625 0
0.6875 0.6875 0
0.75 0.6875 0
0.625 0.6875 0
0.6875 0.6875 0
0.625 0.75 0
0.6875 0.75 0
0.6875 0.6875 0
0.75 0.6875 0
0.6875 0.75 0
0.75 0.75 0
0.375 -0.25 0
0.4375 -0.25 0
0.375 -0.1875 0
0.4375 -0.1875 0
-0.4375 0.1875 0
-0.375 0.1875 0
-0.4375 0.25 0
-0.375 0.25 0
-0.5625 -0.5 0
-0.5 -0.5 0
-0.5625 -0.4375 0
-0.5 -0.4375 0
-0.5 -0.375 0
-0.4375 -0.375 0
-0.5 -0.3125 0
-0.4375 -0.3125 0
-0.4375 -0.375 0
-0.375 -0.375 0
-0.4375 -0.3125 0
-0.375 -0.3125 0
-0.375 -0.375 0
-0.3125 -0.375 0
-0.375 -0.3125 0
-0.3125 -0.3125 0
-0.3125 -0.375 0
-0.25 -0.375 0
-0.3125 -0.3125 0
-0.25 -0.3125 0
-0.375 -0.3125 0
-0.3125 -0.3125 0
-0.375 -0.25 0
-0.3125 -0.25 0
0.375 -0.375 0
0.4375 -0.375 0
0.375 -0.3125 0
0.4375 -0.3125 0
0.4375 -0.375 0
0.5 -0.375 0
0.4375 -0.3125 0
0.5 -0.3125 0
0.375 -0.3125 0
0.4375 -0.3125 0
0.375 -0.25 0
0.4375 -0.25 0
0.4375 -0.3125 0
0.5 -0.3125 0
0.4375 -0.25 0
0.5 -0.25 0
-0.5 0.25 0
-0.4375 0.25 0
-0.5 0.3125 0
-0.4375 0.3125 0
-0.4375 0.25 0
-0.375 0.25 0
-0.4375 0.3125 0
-0.375 0.3125 0
-0.5 0.3125 0
-0.4375 0.3125 0
-0.5 0.375 0
-0.4375 0.375 0
-0.4375 0.3125 0
-0.375 0.3125 0
-0.4375 0.375 0
-0.375 0.375 0
0.3125 0.25 0
0.375 0.25 0
0.3125 0.3125 0
0.375 0.3125 0
0.25 0.3125 0
0.3125 0.3125 0
0.25 0.375 0
0.3125 0.375 0
0.3125 0.3125 0
0.375 0.3125 0
0.3125 0.375 0
0.375 0.375 0
0.375 0.3125 0
0.4375 0.3125 0
0.375 0.375 0
0.4375 0.375 0
0.4375 0.3125 0
0.5 0.3125 0
0.4375 0.375 0
0.5 0.375 0
0.5 0.4375 0
0.5625 0.4375 0
0.5 0.5 0
0.5625 0.5 0
0.5 -0.375 0
0.5625 -0.375 0
0.5 -0.3125 0
0.5625 -0.3125 0
0.5625 -0.375 0
0.625 -0.375 0
0.5625 -0.3125 0
0.625 -0.3125 0
0.5 -0.3125 0
0.5625 -0.3125 0
0.5 -0.25 0
0.5625 -0.25 0
-0.5625 0.25 0
-0.5 0.25 0
-0.5625 0.3125 0
-0.5 0.3125 0
-0.625 0.3125 0
-0.5625 0.3125 0
-0.625 0.375 0
-0.5625 0.375 0
-0.5625 0.3125 0
-0.5 0.3125 0
-0.5625 0.375 0
-0.5 0.375 0
-0.5625 -0.5625 0
-0.5 -0.5625 0
-0.5625 -0.5 0
-0.5 -0.5 0
-0.25 -0.625 0
-0.1875 -0.625 0
-0.25 -0.5625 0
-0.1875 -0.5625 0
0.1875 0.5625 0
0.25 0.5625 0
0.1875 0.625 0
0.25 0.625 0
0.5 0.5 0
0.5625 0.5 0
0.5 0.5625 0
0.5625 0.5625 0
-0.75 -0.8125 0
-0.6875 -0.8125 0
-0.75 -0.75 0
-0.6875 -0.75 0
-0.6875 -0.8125 0
-0.625 -0.8125 0
-0.6875 -0.75 0
-0.625 -0.75 0
-0.8125 -0.75 0
-0.75 -0.75 0
-0.8125 -0.6875 0
-0.75 -0.6875 0
-0.375 -0.625 0
-0.3125 -0.625 0
-0.375 -0.5625 0
-0.3125 -0.5625 0
-0.3125 -0.625 0
-0.25 -0.625 0
-0.3125 -0.5625 0
-0.25 -0.5625 0
0.3125 -0.6875 0
0.375 -0.6875 0
0.3125 -0.625 0
0.375 -0.625 0
0.375 -0.6875 0
0.4375 -0.6875 0
0.375 -0.625 0
0.4375 -0.625 0
0.4375 -0.6875 0
0.5 -0.6875 0
0.4375 -0.625 0
0.5 -0.625 0
0.25 -0.625 0
0.3125 -0.625 0
0.25 -0.5625 0
0.3125 -0.5625 0
0.3125 -0.625 0
0.375 -0.625 0
0.3125 -0.5625 0
0.375 -0.5625 0
0.3125 -0.5625 0
0.375 -0.5625 0
0.3125 -0.5 0
0.375 -0.5 0
-0.375 0.5 0
-0.3125 0.5 0
-0.375 0.5625 0
-0.3125 0.5625 0
-0.375 0.5625 0
-0.3125 0.5625 0
-0.375 0.625 0
-0.3125 0.625 0
-0.3125 0.5625 0
-0.25 0.5625 0
-0.3125 0.625 0
-0.25 0.625 0
-0.5 0.625 0
-0.4375 0.625 0
-0.5 0.6875 0
-0.4375 0.6875 0
-0.4375 0.625 0
-0.375 0.625 0
-0.4375 0.6875 0
-0.375 0.6875 0
-0.375 0.625 0
-0.3125 0.625 0
-0.375 0.6875 0
-0.3125 0.6875 0
0.25 0.5625 0
0.3125 0.5625 0
0.25 0.625 0
0.3125 0.625 0
0.3125 0.5625 0
0.375 0.5625 0
0.3125 0.625 0
0.375 0.625 0
0.75 0.6875 0
0.8125 0.6875 0
0.75 0.75 0
0.8125 0.75 0
0.625 0.75 0
0.6875 0.75 0
0.625 0.8125 0
0.6875 0.8125 0
0.6875 0.75 0
0.75 0.75 0
0.6875 0.8125 0
0.75 0.8125 0
0.25 -0.25 0
0.3125 -0.25 0
0.25 -0.1875 0
0.3125 -0.1875 0
0.3125 -0.25 0
0.375 -0.25 0
0.3125 -0.1875 0
0.375 -0.1875 0
0.25 -0.1875 0
0.3125 -0.1875 0
0.25 -0.125 0
0.3125 -0.125 0
0.3125 -0.1875 0
0.375 -0.1875 0
0.3125 -0.125 0
0.375 -0.125 0
-0.3125 0.125 0
-0.25 0.125 0
-0.3125 0.1875 0
-0.25 0.1875 0
-0.375 0.1875 0
-0.3125 0.1875 0
-0.375 0.25 0
-0.3125 0.25 0
-0.3125 0.1875 0
-0.25 0.1875 0
-0.3125 0.25 0
-0.25 0.25 0
0.25 -0.3125 0
0.3125 -0.3125 0
0.25 -0.25 0
0.3125 -0.25 0
0.3125 -0.3125 0
0.375 -0.3125 0
0.3125 -0.25 0
0.375 -0.25 0
-0.375 0.25 0
-0.3125 0.25 0
-0.375 0.3125 0
-0.3125 0.3125 0
-0.3125 0.25 0
-0.25 0.25 0
-0.3125 0.3125 0
-0.25 0.3125 0
-1 -0.5 0
-0.9375 -0.5 0
-1 -0.4375 0
-0.9375 -0.4375 0
-1 -0.4375 0
-0.9375 -0.4375 0
-1 -0.375 0
-0.9375 -0.375 0
0.9375 0.375 0
1 0.375 0
0.9375 0.4375 0
1 0.4375 0
0.9375 0.4375 0
1 0.4375 0
0.9375 0.5 0
1 0.5 0
0.5 -0.5 0
0.5625 -0.5 0
0.5 -0.4375 0
0.5625 -0.4375 0
0.5625 -0.5 0
0.625 -0.5 0
0.5625 -0.4375 0
0.625 -0.4375 0
0.5 -0.4375 0
0.5625 -0.4375 0
0.5 -0.375 0
0.5625 -0.375 0
0.5625 -0.4375 0
0.625 -0.4375 0
0.5625 -0.375 0
0.625 -0.375 0
-0.625 0.375 0
-0.5625 0.375 0
-0.625 0.4375 0
-0.5625 0.4375 0
-0.5625 0.375 0
-0.5 0.375 0
-0.5625 0.4375 0
-0.5 0.4375 0
-0.625 0.4375 0
-0.5625 0.4375 0
-0.625 0.5 0
-0.5625 0.5 0
-0.5625 0.4375 0
-0.5 0.4375 0
-0.5625 0.5 0
-0.5 0.5 0
-0.625 -0.6875 0
-0.5625 -0.6875 0
-0.625 -0.625 0
-0.5625 -0.625 0
-0.5625 -0.6875 0
-0.5 -0.6875 0
-0.5625 -0.625 0
-0.5 -0.625 0
0.5 0.625 0
0.5625 0.625 0
0.5 0.6875 0
0.5625 0.6875 0
0.5625 0.625 0
0.625 0.625 0
0.5625 0.6875 0
0.625 0.6875 0
0.75 -0.5 0
0.8125 -0.5 0
0.75 -0.4375 0
0.8125 -0.4375 0
0.8125 -0.5 0
0.875 -0.5 0
0.8125 -0.4375 0
0.875 -0.4375 0
0.875 -0.5 0
0.9375 -0.5 0
0.875 -0.4375 0
0.9375 -0.4375 0
0.9375 -0.5 0
1 -0.5 0
0.9375 -0.4375 0
1 -0.4375 0
0.875 -0.4375 0
0.9375 -0.4375 0
0.875 -0.375 0
0.9375 -0.375 0
0.9375 -0.4375 0
1 -0.4375 0
0.9375 -0.375 0
1 -0.375 0
0.9375 -0.375 0
1 -0.375 0
0.9375 -0.3125 0
1 -0.3125 0
0.9375 -0.3125 0
1 -0.3125 0
0.9375 -0.25 0
1 -0.25 0
-1 0.25 0
-0.9375 0.25 0
-1 0.3125 0
-0.9375 0.3125 0
-1 0.3125 0
-0.9375 0.3125 0
-1 0.375 0
-0.9375 0.375 0
-1 0.375 0
-0.9375 0.375 0
-1 0.4375 0
-0.9375 0.4375 0
-0.9375 0.375 0
-0.875 0.375 0
-0.9375 0.4375 0
-0.875 0.4375 0
-1 0.4375 0
-0.9375 0.4375 0
-1 0.5 0
-0.9375 0.5 0
-0.9375 0.4375 0
-0.875 0.4375 0
-0.9375 0.5 0
-0.875 0.5 0
-0.875 0.4375 0
-0.8125 0.4375 0
-0.875 0.5 0
-0.8125 0.5 0
-0.8125 0.4375 0
-0.75 0.4375 0
-0.8125 0.5 0
-0.75 0.5 0
-1 -0.75 0
-0.9375 -0.75 0
-1 -0.6875 0
-0.9375 -0.6875 0
-1 -0.6875 0
-0.9375 -0.6875 0
-1 -0.625 0
-0.9375 -0.625 0
-1 -0.625 0
-0.9375 -0.625 0
-1 -0.5625 0
-0.9375 -0.5625 0
-1 -0.5625 0
-0.9375 -0.5625 0
-1 -0.5 0
-0.9375 -0.5 0
-0.25 -1 0
-0.1875 -1 0
-0.25 -0.9375 0
-0.1875 -0.9375 0
-0.1875 -1 0
-0.125 -1 0
-0.1875 -0.9375 0
-0.125 -0.9375 0
-0.125 -1 0
-0.0625 -1 0
-0.125 -0.9375 0
-0.0625 -0.9375 0
-0.0625 -1 0
0 -1 0
-0.0625 -0.9375 0
0 -0.9375 0
-0.5 -0.625 0
-0.4375 -0.625 0
-0.5 -0.5625 0
-0.4375 -0.5625 0
-0.4375 -0.625 0
-0.375 -0.625 0
-0.4375 -0.5625 0
-0.375 -0.5625 0
-0.5 -0.5625 0
-0.4375 -0.5625 0
-0.5 -0.5 0
-0.4375 -0.5 0
-0.4375 -0.5625 0
-0.375 -0.5625 0
-0.4375 -0.5 0
-0.375 -0.5 0
0 -1 0
0.0625 -1 0
0 -0.9375 0
0.0625 -0.9375 0
0.0625 -1 0
0.125 -1 0
0.0625 -0.9375 0
0.125 -0.9375 0
-0.125 0.9375 0
-0.0625 0.9375 0
-0.125 1 0
-0.0625 1 0
-0.0625 0.9375 0
0 0.9375 0
-0.0625 1 0
0 1 0
0.375 0.5 0
0.4375 0.5 0
0.375 0.5625 0
0.4375 0.5625 0
0.4375 0.5 0
0.5 0.5 0
0.4375 0.5625 0
0.5 0.5625 0
0.375 0.5625 0
0.4375 0.5625 0
0.375 0.625 0
0.4375 0.625 0
0.4375 0.5625 0
0.5 0.5625 0
0.4375 0.625 0
0.5 0.625 0
0 0.9375 0
0.0625 0.9375 0
0 1 0
0.0625 1 0
0.0625 0.9375 0
0.125 0.9375 0
0.0625 1 0
0.125 1 0
0.125 0.9375 0
[...]
POINT_DATA 34864
SCALARS x_displacement double 1
LOOKUP_TABLE default
0 0 0.000277204 0 0 0.000280713 0 0 0 0 0.00190301 0.00183972 0.00184383 0.00190599 0 0 0.000455806 0.000277204 0.00159885 0.00113792 0.00225543 0.00159885 0.00431155 0.00359528 0.00359528 0.00431274 0.00160381 0.00226218 0.0011402 0.00160381 0.000280713 0.000461569 0 0 0 0.000781262 0 0 0.000430659 9.02439e-05 9.40798e-05 0.000431962 0 0 0.000782343 0 0 0 0 0 9.02439e-05 1.64948e-05 0 0 1.64948e-05 6.48361e-05 9.02439e-05 1.64948e-05 0.000875675 0.000455806 1.64948e-05 6.48361e-05 0.000455806 0.000277204 0.000277204 0.000420515 0.00113792 0.000532745 0.000420515 0 0.000532745 0 0.000532745 0 0.00105549 0 0 0.00105353 0 0.000533145 0 0.000533145 0 0.000421796 0.000533145 0.0011402 0.000421796 0.000280713 0.000280713 0.000461569 6.95792e-05 2.09034e-05 0.000461569 0.000881834 2.09034e-05 9.40798e-05 6.95792e-05 2.09034e-05 0 0 2.09034e-05 9.40798e-05 0 0 0.015185 0.0148491 0.0173448 0.0176084 0.0175548 0.0173418 0.0148232 0.0151619 0.0205583 0.0214631 0.0230834 0.0244288 0.0112302 0.0121013 0.0133247 0.0140483 0.0121013 0.012479 0.0140483 0.0147019 0.00653064 0.00585248 0.00840941 0.00790437 0.00789352 0.00839902 0.00584977 0.00652684 0.0147412 0.0140799 0.0125104 0.0121299 0.0140799 0.0133506 0.0121299 0.0112538 0.00359528 0.00313595 0.00492993 0.00441154 0.00492993 0.00441154 0.00672585 0.00586156 0.00584575 0.0067113 0.00440462 0.00492431 0.00440462 0.00492431 0.00313451 0.00359528 0.00294814 0.00329251 0.00356769 0.00405725 0.00329251 0.00352501 0.00405725 0.0044906 0.00356769 0.00405725 0.00418565 0.00480762 0.00405725 0.0044906 0.00480762 0.00532307 0.00480762 0.00532307 0.00569303 0.00619665 0.00620541 0.00570027 0.00533044 0.00481379 0.00533044 0.00481379 0.00449678 0.00406248 0.00481379 0.00419083 0.00406248 0.00357217 0.00449678 0.00406248 0.00353002 0.0032969 0.00406248 0.00357217 0.0032969 0.00295193 0.0147416 0.0144712 0.0185095 0.0191036 0.0189924 0.0186043 0.0144537 0.0147012 0.00880883 0.00934399 0.0102735 0.0112302 0.0133247 0.0140483 0.0154922 0.0162278 0.0140483 0.0147019 0.0162278 0.0169909 0.0147019 0.0152516 0.0169909 0.0173662 0.0152516 0.0152818 0.0173662 0.0175409 0.0169909 0.0173662 0.0198717 0.0201097 0.0091305 0.00840941 0.0115226 0.0110877 0.00840941 0.00790437 0.0110877 0.0105625 0.0115226 0.0110877 0.0147416 0.0144712 0.0110877 0.0105625 0.0144712 0.0139622 0.0139125 0.0144537 0.0105419 0.0110655 0.0144537 0.0147012 0.0110655 0.0115031 0.0105419 0.0110655 0.00789352 0.00839902 0.0110655 0.0115031 0.00839902 0.00911724 0.0201449 0.0198894 0.0174181 0.0170293 0.0176179 0.0174181 0.0153422 0.0152996 0.0174181 0.0170293 0.0152996 0.0147412 0.0170293 0.0162538 0.0147412 0.0140799 0.0162538 0.0155127 0.0140799 0.0133506 0.0112538 0.0102918 0.00936198 0.00882435 0.00790437 0.00734368 0.0105625 0.00991449 0.00734368 0.00672585 0.00991449 0.00899648 0.0105625 0.00991449 0.0139622 0.0132407 0.0131858 0.0139125 0.00988757 0.0105419 0.00896709 0.00988757 0.0067113 0.00733142 0.00988757 0.0105419 0.00733142 0.00789352 0.00736967 0.00798534 0.00880883 0.00934399 0.00746932 0.00729446 0.00901484 0.0089231 0.00892776 0.00902159 0.00730483 0.00747625 0.00936198 0.00882435 0.00799932 0.00738174 0.00234405 0.00253956 0.00294814 0.00329251 0.00253956 0.00265748 0.00329251 0.00352501 0.00254345 0.00294814 0.00291355 0.00356769 0.00730718 0.00744865 0.00870831 0.00896555 0.00744865 0.00746932 0.00896555 0.00901484 0.00263705 0.00219616 0.00353343 0.00310165 0.00219616 0.00182222 0.00310165 0.00271623 0.00182222 0.00145345 0.00271623 0.00225543 0.0041399 0.00353343 0.00538344 0.00471291 0.00353343 0.00310165 0.00471291 0.00421324 0.00471291 0.00421324 0.00613369 0.00550779 0.00550985 0.00613561 0.00421957 0.00472021 0.00421957 0.00472021 0.00310985 0.00354268 0.00472021 0.00539311 0.00354268 0.00415078 0.00226218 0.00272375 0.00146144 0.00183016 0.00272375 0.00310985 0.00183016 0.00220416 0.00310985 0.00354268 0.00220416 0.0026447 0.00902159 0.00897607 0.00747625 0.00745683 0.00897607 0.00872186 0.00745683 0.00731695 0.00357217 0.00291734 0.00295193 0.00254673 0.00353002 0.0032969 0.00266148 0.00254296 0.0032969 0.00295193 0.00254296 0.00234709 0.0148491 0.0147749 0.0176084 0.0180385 0.0147749 0.0147416 0.0180385 0.0185095 0.0176084 0.0180385 0.0205583 0.0214631 0.0180385 0.0185095 0.0214631 0.0229396 0.0212838 0.0204373 0.0179664 0.0175548 0.0186043 0.0179664 0.0147012 0.0147585 0.0179664 0.0175548 0.0147585 0.0148232 0.0125583 0.0120583 0.0148491 0.0147749 0.0120583 0.0115226 0.0147749 0.0147416 0.0147012 0.0147585 0.0115031 0.0120355 0.0147585 0.0148232 0.0120355 0.0125407 0 0.00109235 0 0.00121139 0 0.00121139 0 0.00139169 0.00139561 0 0.00121428 0 0.00121428 0 0.00109454 0 0.00431155 0.0038978 0.00585248 0.00537863 0.0038978 0.00359528 0.00537863 0.00492993 0.00585248 0.00537863 0.00790437 0.00734368 0.00537863 0.00492993 0.00734368 0.00672585 0.0067113 0.00733142 0.00492431 0.00537465 0.00733142 0.00789352 0.00537465 0.00584977 0.00492431 0.00537465 0.00359528 0.00390051 0.00537465 0.00584977 0.00390051 0.00431274 0.0044906 0.00502686 0.00532307 0.0058925 0.00502686 0.00524428 0.0058925 0.00656085 0.00657119 0.00590153 0.00525237 0.00503426 0.00590153 0.00533044 0.00503426 0.00449678 0.00225559 0.00180086 0.00321032 0.00250879 0.00180086 0.00105549 0.00250879 0.00167999 0.00105549 0.00090121 0.00167999 0.000829296 0.00090121 0 0.000829296 0 0.00167999 0.000829296 0.00214352 0.000969566 0.000829296 0 0.000969566 0 0.000969566 0 0.0011064 0 0.0011064 0 0.00138842 0 0 0.00138321 0 0.00110214 0 0.00110214 0 0.000966146 0 0.000966146 0 0.000826764 0.000966146 0.00213594 0.000826764 0.00167504 0 0.000826764 0 0.000898231 0.000826764 0.00167504 0.000898231 0.00105353 0.00167504 0.00250222 0.00105353 0.0017981 0.00250222 0.00320321 0.0017981 0.00225299 0 0.000671712 0 0.000749226 0 0.000749226 0 0.000859789 0 0.000859789 0 0.000972292 0 0.000972292 0 0.00109235 0 0 0.00102567 0.000969637 0 0 0.000969637 0.000899527 0 0 0.000899527 0.00081782 0 0 0.00081782 0.000720807 0.00656085 0.0070406 0.00798534 0.00835625 0.0070406 0.00730718 0.00835625 0.00870831 0.00798534 0.00835625 0.00934399 0.00995076 0.00835625 0.00870831 0.00995076 0.0103403 0 0 0.000720807 0.000606279 0 0 0.000606279 0.000480145 0.000475407 0.000601714 0 0 0.000601714 0.000718254 0 0 0.0103612 0.00997121 0.00872186 0.00837072 0.00997121 0.00936198 0.00837072 0.00799932 0.00872186 0.00837072 0.00731695 0.0070513 0.00837072 0.00799932 0.0070513 0.00657119 0.000718254 0.000818524 0 0 0.000818524 0.000903377 0 0 0.000903377 0.000975353 0 0 0.000975353 0.00103165 0 0 0.00109454 0 0.000973978 0 0.000973978 0 0.000861162 0 0.000861162 0 0.000750373 0 0.000750373 0 0.000672733 0 0.00159885 0.00124306 0.00199009 0.00198154 0.00124306 0.00113792 0.00198154 0.00167125 0.00199009 0.00198154 0.00359528 0.00313595 0.00313451 0.00359528 0.00198286 0.00199152 0.00167147 0.00198286 0.0011402 0.00124691 0.00198286 0.00199152 0.00124691 0.00160381 0.00205621 0.00234405 0.00254345 0.00294814 0.00144402 0.00113728 0.00215462 0.00174085 0.00113728 0.000789323 0.00174085 0.00143928 0.0014451 0.00174588 0.000793754 0.00113909 0.00174588 0.00215759 0.00113909 0.00144302 0.00295193 0.00254673 0.00234709 0.00205893 0 0 0.000754151 0.000722271 0 0 0.000722271 0.00048952 0.000754151 0.000722271 0.00147355 0.00162309 0.000722271 0.00048952 0.00162309 0.00190301 0.00190301 0.00228106 0.00265748 0.0028432 0.00228106 0.00183972 0.0028432 0.00315774 0.00265748 0.0028432 0.00352501 0.00385158 0.0028432 0.00315774 0.00385158 0.00399016 0 0 0.000480145 0.000377342 0 0 0.000377342 0.000267133 0.000480145 0.000377342 0.00128659 0.000940199 0.000377342 0.000267133 0.000940199 0.000704073 0.00310165 0.00271623 0.00421324 0.00381936 0.00271623 0.00225543 0.00381936 0.00369414 0.00421324 0.00381936 0.00550779 0.00499031 0.00381936 0.00369414 0.00499031 0.00431155 0.00431274 0.00499265 0.00370101 0.00382549 0.00499265 0.00550985 0.00382549 0.00421957 0.00370101 0.00382549 0.00226218 0.00272375 0.00382549 0.00421957 0.00272375 0.00310985 0.000701432 0.000934853 0.000264926 0.000373604 0.000934853 0.00127947 0.000373604 0.000475407 0.000264926 0.000373604 0 0 0.000373604 0.000475407 0 0 0.00399694 0.00385759 0.00316368 0.00284794 0.00385759 0.00353002 0.00284794 0.00266148 0.00316368 0.00284794 0.00184383 0.00228495 0.00284794 0.00266148 0.00228495 0.00190599 0.00190599 0.00162531 0.000490113 0.000723213 0.00162531 0.00147549 0.000723213 0.000755132 0.000490113 0.000723213 0 0 0.000723213 0.000755132 0 0 0.000875675 0.000678934 0.00145345 0.0012868 0.000678934 0.000455806 0.0012868 0.00136373 0.00145345 0.0012868 0.00225543 0.00202851 0.0012868 0.00136373 0.00202851 0.00159885 0.00160381 0.00203352 0.00137076 0.00129414 0.00203352 0.00226218 0.00129414 0.00146144 0.00137076 0.00129414 0.000461569 0.000686979 0.00129414 0.00146144 0.000686979 0.000881834 0 0 0.00100459 0.000788001 0 0 0.000788001 0.000754151 0.00100459 0.000788001 0.000781262 0.00130997 0.000788001 0.000754151 0.00130997 0.00147355 0 0.000747713 0 0.000621717 0.000747713 0.000781262 0.000621717 0.00117907 0 0.000621717 0 0.000671712 0.000621717 0.00117907 0.000671712 0.00133236 0 0 0.00152013 0.0012106 0 0 0.0012106 0.00110701 0.00152013 0.0012106 0.00183972 0.00216938 0.0012106 0.00110701 0.00216938 0.00216584 0 0 0.00110701 0.00105984 0 0 0.00105984 0.00102567 0.00110701 0.00105984 0.00216584 0.00213366 0.00105984 0.00102567 0.00213366 0.0019777 0 0 0.000267133 0.000159347 0 0 0.000159347 2.33608e-05 0.000267133 0.000159347 0.000704073 0.0005546 0.000159347 2.33608e-05 0.0005546 0.000430659 0.000430659 0.000292161 0.000789323 0.000636819 0.000292161 9.02439e-05 0.000636819 0.000641117 0.000789323 0.000636819 0.00143928 0.00116368 0.000636819 0.000641117 0.00116368 0.000875675 0.000881834 0.00117013 0.000646611 0.000641876 0.00117013 0.0014451 0.000641876 0.000793754 0.000646611 0.000641876 9.40798e-05 0.000296146 0.000641876 0.000793754 0.000296146 0.000431962 0.000431962 0.00055411 2.37732e-05 0.00015863 0.00055411 0.000701432 0.00015863 0.000264926 2.37732e-05 0.00015863 0 0 0.00015863 0.000264926 0 0 0.00198791 0.00214294 0.00103165 0.00106522 0.00214294 0.00217346 0.00106522 0.00111151 0.00103165 0.00106522 0 0 0.00106522 0.00111151 0 0 0.00217346 0.00217556 0.00111151 0.00121443 0.00217556 0.00184383 0.00121443 0.00152414 0.00111151 0.00121443 0 0 0.00121443 0.00152414 0 0 0.00133414 0.000672733 0.00118073 0.000622648 0.000672733 0 0.000622648 0 0.00118073 0.000622648 0.000782343 0.000748916 0.000622648 0 0.000748916 0 0.00147549 0.0013117 0.000755132 0.000789067 0.0013117 0.000782343 0.000789067 0.00100602 0.000755132 0.000789067 0 0 0.000789067 0.00100602 0 0 0.00113792 0.00107934 0.00167125 0.00146752 0.00107934 0.000532745 0.00146752 0.00156754 0.00167125 0.00146752 0.00225559 0.00180086 0.00146752 0.00156754 0.00180086 0.00105549 0.00105353 0.0017981 0.00156667 0.00146708 0.0017981 0.00225299 0.00146708 0.00167147 0.00156667 0.00146708 0.000533145 0.00108049 0.00146708 0.00167147 0.00108049 0.0011402 0.0110037 0.0121155 0.0116844 0.0129265 0.0116844 0.0129265 0.012727 0.0140251 0.0142028 0.0128387 0.0130656 0.011842 0.0130656 0.011842 0.0122159 0.0111286 0.0168541 0.0163963 0.0177805 0.0174878 0.0175168 0.0178107 0.0164111 0.0168772 0.0263957 0.0254009 0.0265252 0.0252217 0.0082779 0.00882011 0.00881484 0.00945606 0.00780959 0.00881484 0.00858105 0.00939398 0.00881484 0.00945606 0.00939398 0.0101671 0.00858105 0.00939398 0.00936163 0.0102685 0.00939398 0.0101671 0.0102685 0.011169 0.0126744 0.0124584 0.0137314 0.0134128 0.0124584 0.0121727 0.0134128 0.0131266 0.0121727 0.0118479 0.0131266 0.0127524 0.0118479 0.0114903 0.0127524 0.0123754 0.0114903 0.011106 0.0123754 0.0119806 0.011106 0.010702 0.0119806 0.0115702 0.010702 0.0102926 0.0115702 0.0111499 0.0102926 0.00989574 0.0111499 0.010741 0.00989574 0.00951129 0.010741 0.0103623 0.00951129 0.00915878 0.0103623 0.00997189 0.00996227 0.0103522 0.00915322 0.00950488 0.0103522 0.0107304 0.00950488 0.0098877 0.0107304 0.011139 0.0098877 0.0102822 0.011139 0.0115607 0.0102822 0.0106899 0.0115607 0.011976 0.0106899 0.0110969 0.011976 0.0123808 0.0110969 0.0114927 0.0123808 0.0127745 0.0114927 0.0118678 0.0127745 0.0131496 0.0118678 0.0122003 0.0131496 0.0134552 0.0122003 0.0124854 0.0134552 0.0137841 0.0124854 0.0127074 0.0112013 0.0103001 0.0101888 0.00941471 0.0103001 0.00939021 0.00941471 0.00860139 0.0101888 0.00941471 0.00947196 0.00883002 0.00941471 0.00860139 0.00883002 0.00782494 0.00947196 0.00883002 0.00883298 0.00829039 0.0176017 0.0184725 0.0195411 0.0202885 0.0278337 0.027227 0.0279855 0.0273767 0.027227 0.0263957 0.0273767 0.0265252 0.0279855 0.0273767 0.0277365 0.0271261 0.0273767 0.0265252 0.0271261 0.0263459 0.0277365 0.0271261 0.0270691 0.0264106 0.0271261 0.0263459 0.0264106 0.025534 0.0270691 0.0264106 0.0260011 0.0253791 0.0264106 0.025534 0.0253791 0.0243294 0.0202768 0.0195321 0.0184748 0.0176068 0.00546047 0.00588952 0.00568769 0.00639068 0.00588952 0.00634139 0.00639068 0.00684693 0.00639068 0.00684693 0.00707183 0.00748291 0.00634139 0.00673481 0.00684693 0.00728165 0.00684693 0.00728165 0.00748291 0.00791744 0.00707183 0.00748291 0.00765666 0.00814443 0.00765666 0.00814443 0.0082779 0.00882011 0.00748291 0.00791744 0.00814443 0.00860455 0.00814443 0.00860455 0.00882011 0.00932316 0.00882011 0.00932316 0.00945606 0.0102335 0.00785982 0.00875116 0.00848435 0.00964194 0.00848435 0.00964194 0.00902076 0.0102132 0.00964194 0.0110037 0.0102132 0.0116844 0.0119373 0.0117389 0.0128868 0.0126744 0.0117389 0.0115181 0.0126744 0.0124584 0.0115181 0.011263 0.0124584 0.0121727 0.011263 0.0109652 0.0121727 0.0118479 0.0109652 0.0106295 0.0118479 0.0114903 0.0106295 0.0102576 0.0114903 0.011106 0.0102576 0.00986013 0.011106 0.010702 0.00986013 0.00945519 0.010702 0.0102926 0.00945519 0.00905962 0.0102926 0.00989574 0.00905962 0.00868315 0.00989574 0.00951129 0.00868315 0.00831622 0.00951129 0.00915878 0.00831622 0.0079193 0.00915878 0.00882607 0.00882085 0.00915322 0.00791942 0.00831603 0.00915322 0.00950488 0.00831603 0.00868246 0.00950488 0.0098877 0.00868246 0.00905738 0.0098877 0.0102822 0.00905738 0.00944935 0.0102822 0.0106899 0.00944935 0.00984768 0.0106899 0.0110969 0.00984768 0.0102402 0.0110969 0.0114927 0.0102402 0.0106203 0.0114927 0.0118678 0.0106203 0.0109757 0.0118678 0.0122003 0.0109757 0.0112862 0.0122003 0.0124854 0.0112862 0.0115411 0.0124854 0.0127074 0.0115411 0.0117584 0.0127074 0.0129197 0.0117584 0.0119564 0.011842 0.0104352 0.0111286 0.00975545 0.00975545 0.00833435 0.00877363 0.00788639 0.0102508 0.00947196 0.00933709 0.00883298 0.00933709 0.00883298 0.00861651 0.00815542 0.00861651 0.00815542 0.00792804 0.00749252 0.00883298 0.00829039 0.00815542 0.00766714 0.00815542 0.00766714 0.00749252 0.00708094 0.00792804 0.00749252 0.00729124 0.00685553 0.00729124 0.00685553 0.0067436 0.00634928 0.00749252 0.00708094 0.00685553 0.00639866 0.00685553 0.00639866 0.00634928 0.00589669 0.00639866 0.00569518 0.00589669 0.0054672 0.0184725 0.0188905 0.0202885 0.0209009 0.0202885 0.0209009 0.0226925 0.0230982 0.0209009 0.0214022 0.0230982 0.0232955 0.0214022 0.0215253 0.0232955 0.0234114 0.0198717 0.0210104 0.0216574 0.0215076 0.0210104 0.0201097 0.0215076 0.0217286 0.0217254 0.0215064 0.0201449 0.021027 0.0215064 0.0216535 0.021027 0.0198894 0.0233883 0.0232728 0.0215203 0.0213955 0.0232728 0.0230718 0.0213955 0.0208907 0.0230718 0.0226609 0.0208907 0.0202768 0.0208907 0.0202768 0.0188946 0.0184748 0.0103403 0.0107516 0.0114733 0.0115598 0.0107516 0.0108799 0.0115598 0.0117671 0.0108799 0.0109773 0.0117671 0.0118906 0.0189422 0.0186109 0.0200102 0.0196031 0.00759621 0.00724922 0.00835833 0.00804215 0.00724922 0.00682735 0.00804215 0.00777371 0.00776887 0.00803724 0.00682653 0.00724828 0.00803724 0.00835326 0.00724828 0.00759539 0.0119159 0.0117934 0.0109952 0.0108995 0.0117934 0.0115862 0.0108995 0.0107722 0.0115862 0.0114994 0.0107722 0.0103612 0.0176125 0.016702 0.0200343 0.0188248 0.016702 0.0156831 0.0188248 0.0176447 0.0175634 0.0187344 0.0156104 0.0166216 0.0187344 0.0199295 0.0166216 0.0175237 0.00574738 0.0064034 0.00635248 0.00707419 0.0064034 0.00697048 0.00707419 0.00780959 0.00635248 0.00707419 0.00686387 0.00773871 0.00707419 0.00780959 0.00773871 0.00858105 0.00686387 0.00773871 0.0073306 0.00823281 0.00773871 0.00858105 0.00823281 0.00936163 0.0073306 0.00823281 0.00785982 0.00875116 0.00877363 0.00788639 0.00826005 0.00735548 0.00939021 0.00826005 0.00860139 0.00775981 0.00826005 0.00735548 0.00775981 0.00688604 0.00860139 0.00775981 0.00782494 0.00709064 0.00775981 0.00688604 0.00709064 0.00636984 0.00782494 0.00709064 0.00698248 0.00641613 0.00709064 0.00636984 0.00641613 0.0057605 0.00665861 0.00614817 0.00761632 0.00715802 0.00761632 0.00715802 0.0087667 0.00803252 0.00680489 0.00602225 0.00759053 0.0067266 0.00759053 0.0067266 0.00835971 0.00735941 0.00835971 0.00735941 0.00900996 0.0078742 0.00784473 0.00897431 0.00732986 0.00832516 0.00732986 0.00832516 0.00669879 0.00755864 0.00669879 0.00755864 0.00599731 0.00677646 0.00800035 0.00873204 0.00713136 0.00758851 0.00713136 0.00758851 0.00612714 0.00663709 0.0051905 0.00569303 0.00565658 0.00596168 0.00505509 0.00565658 0.00546047 0.00588952 0.00565658 0.00596168 0.00588952 0.00634139 0.00569303 0.00627093 0.00596168 0.00634212 0.00627093 0.00619665 0.00634212 0.0069896 0.00596168 0.00634212 0.00634139 0.00673481 0.00525729 0.00517172 0.00587807 0.00581557 0.00517172 0.00507377 0.00581557 0.00570797 0.00507377 0.00496178 0.00570797 0.00559144 0.00581557 0.00570797 0.00655785 0.00639728 0.00570797 0.00559144 0.00639728 0.00625706 0.00655785 0.00639728 0.00729446 0.0071992 0.00496178 0.00484135 0.00559144 0.00546733 0.00484135 0.00470607 0.00546733 0.00532483 0.00470607 0.00455297 0.00532483 0.00516149 0.00455297 0.0043827 0.00516149 0.00497721 0.00559144 0.00546733 0.00625706 0.00613044 0.00546733 0.00532483 0.00613044 0.00598187 0.00532483 0.00516149 0.00598187 0.00580865 0.00516149 0.00497721 0.00580865 0.00560909 0.0043827 0.00419854 0.00497721 0.00477529 0.00419854 0.00400032 0.00477529 0.00456514 0.00400032 0.00377831 0.00456514 0.00433808 0.00377831 0.00353434 0.00433808 0.0040685 0.00497721 0.00477529 0.00560909 0.00538543 0.00477529 0.00456514 0.00538543 0.00514677 0.00456514 0.00433808 0.00514677 0.00488875 0.00433808 0.0040685 0.00488875 0.00465232 0.00488875 0.00465232 0.00557907 0.00530282 0.0040685 0.00379883 0.00465232 0.00440054 0.00379883 0.0035533 0.00440054 0.00410705 0.00465232 0.00440054 0.00530282 0.00505819 0.0035533 0.00329151 0.00410705 0.00384179 0.00329151 0.0030684 0.00384179 0.00349267 0.0035031 0.00385257 0.00307663 0.00329953 0.00385257 0.0041182 0.00329953 0.00356079 0.00507475 0.00532016 0.00441212 0.00466308 0.0041182 0.00441212 0.00356079 0.00380503 0.00441212 0.00466308 0.00380503 0.00407195 0.00532016 0.00559492 0.00466308 0.00489624 0.00466308 0.00489624 0.00407195 0.00433747 0.00489624 0.00514851 0.00433747 0.00455993 0.00514851 0.00538047 0.00455993 0.00476588 0.00538047 0.00559823 0.00476588 0.00496534 0.00407195 0.00433747 0.00353223 0.00377196 0.00433747 0.00455993 0.00377196 0.0039895 0.00455993 0.00476588 0.0039895 0.00418394 0.00476588 0.00496534 0.00418394 0.00436828 0.00663903 0.00686678 0.00582898 0.00603388 0.00559823 0.00582898 0.00496534 0.00515829 0.00582898 0.00603388 0.00515829 0.00535439 0.00603388 0.00616202 0.00535439 0.00551364 0.00616202 0.00628262 0.00551364 0.00562382 0.00496534 0.00515829 0.00436828 0.00455101 0.00515829 0.00535439 0.00455101 0.00472581 0.00535439 0.00551364 0.00472581 0.00487609 0.00551364 0.00562382 0.00487609 0.00499737 0.00721582 0.00730483 0.00641644 0.00657144 0.00628262 0.00641644 0.00562382 0.00573302 0.00641644 0.00657144 0.00573302 0.00583488 0.00562382 0.00573302 0.00499737 0.00510227 0.00573302 0.00583488 0.00510227 0.00519437 0.00583488 0.00589351 0.00519437 0.00527528 0.0067436 0.00634928 0.00635048 0.00596904 0.00