# vtk DataFile Version 3.0
#This file was generated by the deal.II library on 2020/3/17 at 13:08:33
ASCII
DATASET UNSTRUCTURED_GRID

POINTS 79108 double
0.5 -1 0
0.625 -1 0
0.5 -0.875 0
0.625 -0.875 0
0.625 -1 0
0.75 -1 0
0.625 -0.875 0
0.75 -0.875 0
0.625 -0.875 0
0.75 -0.875 0
0.625 -0.75 0
0.75 -0.75 0
-0.75 0.75 0
-0.625 0.75 0
-0.75 0.875 0
-0.625 0.875 0
-0.75 0.875 0
-0.625 0.875 0
-0.75 1 0
-0.625 1 0
-0.625 0.875 0
-0.5 0.875 0
-0.625 1 0
-0.5 1 0
0.75 -1 0
0.875 -1 0
0.75 -0.875 0
0.875 -0.875 0
0.875 -1 0
1 -1 0
0.875 -0.875 0
1 -0.875 0
0.75 -0.875 0
0.875 -0.875 0
0.75 -0.75 0
0.875 -0.75 0
0.875 -0.875 0
1 -0.875 0
0.875 -0.75 0
1 -0.75 0
-1 0.75 0
-0.875 0.75 0
-1 0.875 0
-0.875 0.875 0
-0.875 0.75 0
-0.75 0.75 0
-0.875 0.875 0
-0.75 0.875 0
-1 0.875 0
-0.875 0.875 0
-1 1 0
-0.875 1 0
-0.875 0.875 0
-0.75 0.875 0
-0.875 1 0
-0.75 1 0
-0.75 -0.75 0
-0.6875 -0.75 0
-0.75 -0.6875 0
-0.6875 -0.6875 0
-0.6875 -0.6875 0
-0.625 -0.6875 0
-0.6875 -0.625 0
-0.625 -0.625 0
0.625 0.625 0
0.6875 0.625 0
0.625 0.6875 0
0.6875 0.6875 0
0.6875 0.6875 0
0.75 0.6875 0
0.6875 0.75 0
0.75 0.75 0
0.4375 -0.6875 0
0.5 -0.6875 0
0.4375 -0.625 0
0.5 -0.625 0
0.3125 -0.625 0
0.375 -0.625 0
0.3125 -0.5625 0
0.375 -0.5625 0
-0.375 0.5625 0
-0.3125 0.5625 0
-0.375 0.625 0
-0.3125 0.625 0
-0.5 0.625 0
-0.4375 0.625 0
-0.5 0.6875 0
-0.4375 0.6875 0
0.25 -0.25 0
0.3125 -0.25 0
0.25 -0.1875 0
0.3125 -0.1875 0
0.3125 -0.25 0
0.375 -0.25 0
0.3125 -0.1875 0
0.375 -0.1875 0
-0.3125 0.1875 0
-0.25 0.1875 0
-0.3125 0.25 0
-0.25 0.25 0
0.5625 -0.5 0
0.625 -0.5 0
0.5625 -0.4375 0
0.625 -0.4375 0
0.5 -0.4375 0
0.5625 -0.4375 0
0.5 -0.375 0
0.5625 -0.375 0
0.5625 -0.4375 0
0.625 -0.4375 0
0.5625 -0.375 0
0.625 -0.375 0
-0.625 0.375 0
-0.5625 0.375 0
-0.625 0.4375 0
-0.5625 0.4375 0
-0.5625 0.375 0
-0.5 0.375 0
-0.5625 0.4375 0
-0.5 0.4375 0
-0.625 0.4375 0
-0.5625 0.4375 0
-0.625 0.5 0
-0.5625 0.5 0
0.75 -0.5 0
0.8125 -0.5 0
0.75 -0.4375 0
0.8125 -0.4375 0
0.9375 -0.4375 0
1 -0.4375 0
0.9375 -0.375 0
1 -0.375 0
-1 0.375 0
-0.9375 0.375 0
-1 0.4375 0
-0.9375 0.4375 0
-0.8125 0.4375 0
-0.75 0.4375 0
-0.8125 0.5 0
-0.75 0.5 0
0.625 -0.625 0
0.6875 -0.625 0
0.625 -0.5625 0
0.6875 -0.5625 0
0.6875 -0.625 0
0.75 -0.625 0
0.6875 -0.5625 0
0.75 -0.5625 0
0.625 -0.5625 0
0.6875 -0.5625 0
0.625 -0.5 0
0.6875 -0.5 0
-0.6875 0.5 0
-0.625 0.5 0
-0.6875 0.5625 0
-0.625 0.5625 0
-0.75 0.5625 0
-0.6875 0.5625 0
-0.75 0.625 0
-0.6875 0.625 0
-0.6875 0.5625 0
-0.625 0.5625 0
-0.6875 0.625 0
-0.625 0.625 0
-0.75 -1 0
-0.6875 -1 0
-0.75 -0.9375 0
-0.6875 -0.9375 0
-0.6875 -1 0
-0.625 -1 0
-0.6875 -0.9375 0
-0.625 -0.9375 0
0.125 -1 0
0.1875 -1 0
0.125 -0.9375 0
0.1875 -0.9375 0
0.1875 -1 0
0.25 -1 0
0.1875 -0.9375 0
0.25 -0.9375 0
0.375 -0.625 0
0.4375 -0.625 0
0.375 -0.5625 0
0.4375 -0.5625 0
0.4375 -0.625 0
0.5 -0.625 0
0.4375 -0.5625 0
0.5 -0.5625 0
-0.5 0.5625 0
-0.4375 0.5625 0
-0.5 0.625 0
-0.4375 0.625 0
-0.4375 0.5625 0
-0.375 0.5625 0
-0.4375 0.625 0
-0.375 0.625 0
-0.25 0.9375 0
-0.1875 0.9375 0
-0.25 1 0
-0.1875 1 0
-0.1875 0.9375 0
-0.125 0.9375 0
-0.1875 1 0
-0.125 1 0
0.625 0.9375 0
0.6875 0.9375 0
0.625 1 0
0.6875 1 0
0.6875 0.9375 0
0.75 0.9375 0
0.6875 1 0
0.75 1 0
0.5 -0.75 0
0.5625 -0.75 0
0.5 -0.6875 0
0.5625 -0.6875 0
0.5625 -0.75 0
0.625 -0.75 0
0.5625 -0.6875 0
0.625 -0.6875 0
0.5 -0.6875 0
0.5625 -0.6875 0
0.5 -0.625 0
0.5625 -0.625 0
0.5625 -0.6875 0
0.625 -0.6875 0
0.5625 -0.625 0
0.625 -0.625 0
-0.625 0.625 0
-0.5625 0.625 0
-0.625 0.6875 0
-0.5625 0.6875 0
-0.5625 0.625 0
-0.5 0.625 0
-0.5625 0.6875 0
-0.5 0.6875 0
-0.625 0.6875 0
-0.5625 0.6875 0
-0.625 0.75 0
-0.5625 0.75 0
-0.5625 0.6875 0
-0.5 0.6875 0
-0.5625 0.75 0
-0.5 0.75 0
-0.875 -1 0
-0.8125 -1 0
-0.875 -0.9375 0
-0.8125 -0.9375 0
-0.8125 -1 0
-0.75 -1 0
-0.8125 -0.9375 0
-0.75 -0.9375 0
-1 -0.8125 0
-0.9375 -0.8125 0
-1 -0.75 0
-0.9375 -0.75 0
-0.5 -1 0
-0.4375 -1 0
-0.5 -0.9375 0
-0.4375 -0.9375 0
-0.4375 -1 0
-0.375 -1 0
-0.4375 -0.9375 0
-0.375 -0.9375 0
-0.375 -1 0
-0.3125 -1 0
-0.375 -0.9375 0
-0.3125 -0.9375 0
-0.3125 -1 0
-0.25 -1 0
-0.3125 -0.9375 0
-0.25 -0.9375 0
0.25 -1 0
0.3125 -1 0
0.25 -0.9375 0
0.3125 -0.9375 0
0.3125 -1 0
0.375 -1 0
0.3125 -0.9375 0
0.375 -0.9375 0
0.375 -0.8125 0
0.4375 -0.8125 0
0.375 -0.75 0
0.4375 -0.75 0
0.4375 -0.8125 0
0.5 -0.8125 0
0.4375 -0.75 0
0.5 -0.75 0
-0.5 0.75 0
-0.4375 0.75 0
-0.5 0.8125 0
-0.4375 0.8125 0
-0.4375 0.75 0
-0.375 0.75 0
-0.4375 0.8125 0
-0.375 0.8125 0
-0.375 0.9375 0
-0.3125 0.9375 0
-0.375 1 0
-0.3125 1 0
-0.3125 0.9375 0
-0.25 0.9375 0
-0.3125 1 0
-0.25 1 0
0.25 0.9375 0
0.3125 0.9375 0
0.25 1 0
0.3125 1 0
0.3125 0.9375 0
0.375 0.9375 0
0.3125 1 0
0.375 1 0
0.375 0.9375 0
0.4375 0.9375 0
0.375 1 0
0.4375 1 0
0.4375 0.9375 0
0.5 0.9375 0
0.4375 1 0
0.5 1 0
0.9375 0.75 0
1 0.75 0
0.9375 0.8125 0
1 0.8125 0
0.75 0.9375 0
0.8125 0.9375 0
0.75 1 0
0.8125 1 0
0.8125 0.9375 0
0.875 0.9375 0
0.8125 1 0
0.875 1 0
0.75 -0.625 0
0.8125 -0.625 0
0.75 -0.5625 0
0.8125 -0.5625 0
0.75 -0.5625 0
0.8125 -0.5625 0
0.75 -0.5 0
0.8125 -0.5 0
-0.8125 0.5 0
-0.75 0.5 0
-0.8125 0.5625 0
-0.75 0.5625 0
-0.8125 0.5625 0
-0.75 0.5625 0
-0.8125 0.625 0
-0.75 0.625 0
-0.625 -1 0
-0.5625 -1 0
-0.625 -0.9375 0
-0.5625 -0.9375 0
-0.5625 -1 0
-0.5 -1 0
-0.5625 -0.9375 0
-0.5 -0.9375 0
-0.625 -0.9375 0
-0.5625 -0.9375 0
-0.625 -0.875 0
-0.5625 -0.875 0
-0.5625 -0.9375 0
-0.5 -0.9375 0
-0.5625 -0.875 0
-0.5 -0.875 0
0.5 0.875 0
0.5625 0.875 0
0.5 0.9375 0
0.5625 0.9375 0
0.5625 0.875 0
0.625 0.875 0
0.5625 0.9375 0
0.625 0.9375 0
0.5 0.9375 0
0.5625 0.9375 0
0.5 1 0
0.5625 1 0
0.5625 0.9375 0
0.625 0.9375 0
0.5625 1 0
0.625 1 0
0.625 -0.75 0
0.6875 -0.75 0
0.625 -0.6875 0
0.6875 -0.6875 0
0.6875 -0.75 0
0.75 -0.75 0
0.6875 -0.6875 0
0.75 -0.6875 0
0.625 -0.6875 0
0.6875 -0.6875 0
0.625 -0.625 0
0.6875 -0.625 0
0.6875 -0.6875 0
0.75 -0.6875 0
0.6875 -0.625 0
0.75 -0.625 0
0.5 -0.625 0
0.5625 -0.625 0
0.5 -0.5625 0
0.5625 -0.5625 0
0.5625 -0.625 0
0.625 -0.625 0
0.5625 -0.5625 0
0.625 -0.5625 0
0.5 -0.5625 0
0.5625 -0.5625 0
0.5 -0.5 0
0.5625 -0.5 0
0.5625 -0.5625 0
0.625 -0.5625 0
0.5625 -0.5 0
0.625 -0.5 0
-0.625 0.5 0
-0.5625 0.5 0
-0.625 0.5625 0
-0.5625 0.5625 0
-0.5625 0.5 0
-0.5 0.5 0
-0.5625 0.5625 0
-0.5 0.5625 0
-0.625 0.5625 0
-0.5625 0.5625 0
-0.625 0.625 0
-0.5625 0.625 0
-0.5625 0.5625 0
-0.5 0.5625 0
-0.5625 0.625 0
-0.5 0.625 0
-0.75 0.625 0
-0.6875 0.625 0
-0.75 0.6875 0
-0.6875 0.6875 0
-0.6875 0.625 0
-0.625 0.625 0
-0.6875 0.6875 0
-0.625 0.6875 0
-0.75 0.6875 0
-0.6875 0.6875 0
-0.75 0.75 0
-0.6875 0.75 0
-0.6875 0.6875 0
-0.625 0.6875 0
-0.6875 0.75 0
-0.625 0.75 0
-1 -1 0
-0.9375 -1 0
-1 -0.9375 0
-0.9375 -0.9375 0
-0.9375 -1 0
-0.875 -1 0
-0.9375 -0.9375 0
-0.875 -0.9375 0
-1 -0.9375 0
-0.9375 -0.9375 0
-1 -0.875 0
-0.9375 -0.875 0
-0.9375 -0.9375 0
-0.875 -0.9375 0
-0.9375 -0.875 0
-0.875 -0.875 0
0.375 -1 0
0.4375 -1 0
0.375 -0.9375 0
0.4375 -0.9375 0
0.4375 -1 0
0.5 -1 0
0.4375 -0.9375 0
0.5 -0.9375 0
0.375 -0.9375 0
0.4375 -0.9375 0
0.375 -0.875 0
0.4375 -0.875 0
0.4375 -0.9375 0
0.5 -0.9375 0
0.4375 -0.875 0
0.5 -0.875 0
-0.5 0.875 0
-0.4375 0.875 0
-0.5 0.9375 0
-0.4375 0.9375 0
-0.4375 0.875 0
-0.375 0.875 0
-0.4375 0.9375 0
-0.375 0.9375 0
-0.5 0.9375 0
-0.4375 0.9375 0
-0.5 1 0
-0.4375 1 0
-0.4375 0.9375 0
-0.375 0.9375 0
-0.4375 1 0
-0.375 1 0
0.875 0.875 0
0.9375 0.875 0
0.875 0.9375 0
0.9375 0.9375 0
0.9375 0.875 0
1 0.875 0
0.9375 0.9375 0
1 0.9375 0
0.875 0.9375 0
0.9375 0.9375 0
0.875 1 0
0.9375 1 0
0.9375 0.9375 0
1 0.9375 0
0.9375 1 0
1 1 0
0.5 -0.875 0
0.5625 -0.875 0
0.5 -0.8125 0
0.5625 -0.8125 0
0.5625 -0.875 0
0.625 -0.875 0
0.5625 -0.8125 0
0.625 -0.8125 0
0.5 -0.8125 0
0.5625 -0.8125 0
0.5 -0.75 0
0.5625 -0.75 0
0.5625 -0.8125 0
0.625 -0.8125 0
0.5625 -0.75 0
0.625 -0.75 0
0.75 -0.75 0
0.8125 -0.75 0
0.75 -0.6875 0
0.8125 -0.6875 0
0.8125 -0.75 0
0.875 -0.75 0
0.8125 -0.6875 0
0.875 -0.6875 0
0.75 -0.6875 0
0.8125 -0.6875 0
0.75 -0.625 0
0.8125 -0.625 0
0.8125 -0.6875 0
0.875 -0.6875 0
0.8125 -0.625 0
0.875 -0.625 0
0.875 -0.75 0
0.9375 -0.75 0
0.875 -0.6875 0
0.9375 -0.6875 0
0.9375 -0.75 0
1 -0.75 0
0.9375 -0.6875 0
1 -0.6875 0
0.875 -0.6875 0
0.9375 -0.6875 0
0.875 -0.625 0
0.9375 -0.625 0
0.9375 -0.6875 0
1 -0.6875 0
0.9375 -0.625 0
1 -0.625 0
0.875 -0.625 0
0.9375 -0.625 0
0.875 -0.5625 0
0.9375 -0.5625 0
0.9375 -0.625 0
1 -0.625 0
0.9375 -0.5625 0
1 -0.5625 0
0.875 -0.5625 0
0.9375 -0.5625 0
0.875 -0.5 0
0.9375 -0.5 0
0.9375 -0.5625 0
1 -0.5625 0
0.9375 -0.5 0
1 -0.5 0
-1 0.5 0
-0.9375 0.5 0
-1 0.5625 0
-0.9375 0.5625 0
-0.9375 0.5 0
-0.875 0.5 0
-0.9375 0.5625 0
-0.875 0.5625 0
-1 0.5625 0
-0.9375 0.5625 0
-1 0.625 0
-0.9375 0.625 0
-0.9375 0.5625 0
-0.875 0.5625 0
-0.9375 0.625 0
-0.875 0.625 0
-1 0.625 0
-0.9375 0.625 0
-1 0.6875 0
-0.9375 0.6875 0
-0.9375 0.625 0
-0.875 0.625 0
-0.9375 0.6875 0
-0.875 0.6875 0
-1 0.6875 0
-0.9375 0.6875 0
-1 0.75 0
-0.9375 0.75 0
-0.9375 0.6875 0
-0.875 0.6875 0
-0.9375 0.75 0
-0.875 0.75 0
-0.875 0.625 0
-0.8125 0.625 0
-0.875 0.6875 0
-0.8125 0.6875 0
-0.8125 0.625 0
-0.75 0.625 0
-0.8125 0.6875 0
-0.75 0.6875 0
-0.875 0.6875 0
-0.8125 0.6875 0
-0.875 0.75 0
-0.8125 0.75 0
-0.8125 0.6875 0
-0.75 0.6875 0
-0.8125 0.75 0
-0.75 0.75 0
-0.625 0.75 0
-0.5625 0.75 0
-0.625 0.8125 0
-0.5625 0.8125 0
-0.5625 0.75 0
-0.5 0.75 0
-0.5625 0.8125 0
-0.5 0.8125 0
-0.625 0.8125 0
-0.5625 0.8125 0
-0.625 0.875 0
-0.5625 0.875 0
-0.5625 0.8125 0
-0.5 0.8125 0
-0.5625 0.875 0
-0.5 0.875 0
-0.75 -0.34375 0
-0.71875 -0.34375 0
-0.75 -0.3125 0
-0.71875 -0.3125 0
-0.75 -0.3125 0
-0.71875 -0.3125 0
-0.75 -0.28125 0
-0.71875 -0.28125 0
0.71875 0.28125 0
0.75 0.28125 0
0.71875 0.3125 0
0.75 0.3125 0
0.71875 0.3125 0
0.75 0.3125 0
0.71875 0.34375 0
0.75 0.34375 0
0.5 0 0
0.53125 0 0
0.5 0.03125 0
0.53125 0.03125 0
0.53125 0 0
0.5625 0 0
0.53125 0.03125 0
0.5625 0.03125 0
0.5 0.03125 0
0.53125 0.03125 0
0.5 0.0625 0
0.53125 0.0625 0
0.5 0.0625 0
0.53125 0.0625 0
0.5 0.09375 0
0.53125 0.09375 0
0.5 0.09375 0
0.53125 0.09375 0
0.5 0.125 0
0.53125 0.125 0
-0.75 -0.5 0
[...]
POINT_DATA 79108
SCALARS x_displacement double 1
LOOKUP_TABLE default
0 0 0.000183044 1.64602e-05 0 0 1.64602e-05 2.94819e-05 1.64602e-05 2.94819e-05 0.000557574 0.000389972 0.000390649 0.000557508 2.96389e-05 1.62672e-05 2.96389e-05 1.62672e-05 0 0 1.62672e-05 0.00018237 0 0 0 0 2.94819e-05 7.20095e-05 0 0 7.20095e-05 0 2.94819e-05 7.20095e-05 0.000389972 0.000268891 7.20095e-05 0 0.000268891 0 0 0.000269602 0 7.23241e-05 0.000269602 0.000390649 7.23241e-05 2.96389e-05 0 7.23241e-05 0 0 7.23241e-05 2.96389e-05 0 0 0.00309793 0.00337438 0.00369359 0.0042364 0.0042364 0.00472586 0.00515944 0.00558347 0.00558502 0.00516223 0.00472777 0.00423834 0.00423834 0.00369626 0.00337645 0.00309999 0.00190469 0.00152892 0.00273732 0.00238702 0.00377202 0.00324824 0.00500171 0.00443537 0.00443554 0.00500394 0.0032492 0.00377487 0.0023869 0.00273721 0.00152865 0.00190484 0.0158592 0.0157096 0.0187427 0.0191292 0.0157096 0.0156146 0.0191292 0.0196107 0.0190997 0.0186968 0.0156593 0.0158248 0.00418378 0.00378553 0.00580639 0.00532667 0.00637241 0.00580639 0.00847011 0.00789153 0.00580639 0.00532667 0.00789153 0.00726252 0.00727785 0.00790688 0.00533749 0.00581558 0.00790688 0.00848248 0.00581558 0.00637725 0.00533749 0.00581558 0.00379187 0.00418826 0.00255769 0.00212215 0.00349871 0.00290855 0.000798482 0 0.000955908 0 0 0.000956937 0 0.000799689 0.00291446 0.00350644 0.00212699 0.00256356 0.00176743 0.00151308 0.00265041 0.00233566 0.00151308 0.00128701 0.00233566 0.00185666 0.00265041 0.00233566 0.00378553 0.00333206 0.0033391 0.00379187 0.00233975 0.00265376 0.00186064 0.00233975 0.00128951 0.00151539 0.00233975 0.00265376 0.00151539 0.00176904 0 0 0.000787182 0.000843523 0 0 0.000843523 0.00094003 0 0 0.000601384 0.000407364 0 0 0.000407364 0.000283099 0.00324824 0.00273732 0.00443537 0.00394448 0.00273732 0.00238702 0.00394448 0.0033862 0.00338668 0.00394389 0.0023869 0.00273721 0.00394389 0.00443554 0.00273721 0.0032492 0.00028006 0.000402915 0 0 0.000402915 0.000596373 0 0 0.000941402 0.000844362 0 0 0.000844362 0.000787847 0 0 0.000913889 0.000706659 0.00152892 0.00127655 0.000706659 0.000557574 0.00127655 0.00108771 0.00152892 0.00127655 0.00238702 0.00205511 0.00127655 0.00108771 0.00205511 0.00176743 0.00176904 0.00205577 0.00108841 0.00127655 0.00205577 0.0023869 0.00127655 0.00152865 0.00108841 0.00127655 0.000557508 0.000706288 0.00127655 0.00152865 0.000706288 0.00091352 0 0 0.000536465 0.000706279 0 0 0.000706279 0.000787182 0 0.00061084 0 0.000622859 0 0 0.00103591 0.00106439 0 0 0.00106439 0.00106083 0 0 0.00106083 0.00103808 0 0 0.00103808 0.00097215 0 0 0.000283099 0.00017704 0 0 0.00017704 7.13379e-05 0.000903832 0.000675772 0.0015057 0.00118911 0.000675772 0.000448673 0.00118911 0.000913889 0.00091352 0.00118907 0.000448119 0.000675215 0.00118907 0.00150632 0.000675215 0.000903382 7.02879e-05 0.000175166 0 0 0.000175166 0.00028006 0 0 0.000978283 0.00104376 0 0 0.00104376 0.00106564 0 0 0.00106564 0.00106825 0 0 0.00106825 0.00103865 0 0 0.000623635 0 0.000611586 0 0.000787847 0.000706901 0 0 0.000706901 0.00053704 0 0 0.00128701 0.00102805 0.00185666 0.00157376 0.00185666 0.00157376 0.00255769 0.00212215 0.00212699 0.00256356 0.00157734 0.00186064 0.00157734 0.00186064 0.00103028 0.00128951 0 0 0.00094003 0.000999401 0 0 0.000999401 0.00103591 0.00094003 0.000999401 0.00206106 0.00202989 0.000999401 0.00103591 0.00202989 0.0019826 0.00198712 0.0020333 0.00103865 0.00100137 0.0020333 0.00206366 0.00100137 0.000941402 0.00103865 0.00100137 0 0 0.00100137 0.000941402 0 0 0.000557574 0.000466062 0.00108771 0.00091974 0.000466062 0.000389972 0.00091974 0.000798617 0.00108771 0.00091974 0.00176743 0.00151308 0.00091974 0.000798617 0.00151308 0.00128701 0.00238702 0.00205511 0.0033862 0.00300134 0.00205511 0.00176743 0.00300134 0.00265041 0.0033862 0.00300134 0.00474503 0.00418378 0.00300134 0.00265041 0.00418378 0.00378553 0.00379187 0.00418826 0.00265376 0.0030032 0.00418826 0.00474641 0.0030032 0.00338668 0.00265376 0.0030032 0.00176904 0.00205577 0.0030032 0.00338668 0.00205577 0.0023869 0.00128951 0.00151539 0.000800071 0.000920849 0.00151539 0.00176904 0.000920849 0.00108841 0.000800071 0.000920849 0.000390649 0.000466608 0.000920849 0.00108841 0.000466608 0.000557508 0 0 0 0.000339016 0 0 0.000339016 0.000536465 0 0.000339016 0 0.000523592 0.000339016 0.000536465 0.000523592 0.000848906 0 0 7.13379e-05 6.90875e-06 0 0 6.90875e-06 -6.82502e-05 7.13379e-05 6.90875e-06 0.000434556 0.000268065 6.90875e-06 -6.82502e-05 0.000268065 0.000183044 0.00018237 0.000267172 -6.87819e-05 6.23014e-06 0.000267172 0.000433314 6.23014e-06 7.02879e-05 -6.87819e-05 6.23014e-06 0 0 6.23014e-06 7.02879e-05 0 0 0.000849711 0.000524233 0.00053704 0.000339443 0.000524233 0 0.000339443 0 0.00053704 0.000339443 0 0 0.000339443 0 0 0 0.000183044 8.7934e-05 0.000448673 0.000341663 8.7934e-05 1.64602e-05 0.000341663 0.000343527 0.000448673 0.000341663 0.000913889 0.000706659 0.000341663 0.000343527 0.000706659 0.000557574 0.000389972 0.000415692 0.000798617 0.000626041 0.000415692 0.000268891 0.000626041 0.000490222 0.000798617 0.000626041 0.00128701 0.00102805 0.000626041 0.000490222 0.00102805 0.000617314 0.000268891 0.000308168 0.000490222 0.0002593 0.000308168 0 0.0002593 0 0.000490222 0.0002593 0.000617314 0.000332061 0.0002593 0 0.000332061 0 0.000617314 0.000332061 0.000787464 0.000430831 0.000332061 0 0.000430831 0 0.000787464 0.000430831 0.00113766 0.000616353 0.000430831 0 0.000616353 0 0 0.000617455 0 0.000431718 0.000617455 0.00114009 0.000431718 0.000789237 0 0.000431718 0 0.00033278 0.000431718 0.000789237 0.00033278 0.000618685 0 0.00033278 0 0.000259924 0.00033278 0.000618685 0.000259924 0.000491407 0 0.000259924 0 0.000309051 0.000259924 0.000491407 0.000309051 0.000269602 0.000618685 0.00103028 0.000491407 0.000627437 0.00103028 0.00128951 0.000627437 0.000800071 0.000491407 0.000627437 0.000269602 0.000416909 0.000627437 0.000800071 0.000416909 0.000390649 0.000557508 0.000706288 0.000343048 0.000341153 0.000706288 0.00091352 0.000341153 0.000448119 0.000343048 0.000341153 1.62672e-05 8.73348e-05 0.000341153 0.000448119 8.73348e-05 0.00018237 0.00842816 0.00918241 0.00903782 0.00982161 0.00903782 0.00982161 0.00985122 0.0106802 0.0107168 0.0098889 0.00984482 0.00906329 0.00984482 0.00906329 0.00919808 0.00844741 0.0294977 0.0288483 0.0296801 0.0290454 0.0288483 0.0279806 0.0290454 0.0280232 0.0296801 0.0290454 0.0294282 0.028768 0.0294282 0.028768 0.0287138 0.0280551 0.0287138 0.0280551 0.0276203 0.0268815 0.00574218 0.00623355 0.00611281 0.00676865 0.00623355 0.00671769 0.00676865 0.00724784 0.00676865 0.00724784 0.00755998 0.00797619 0.00799457 0.00757576 0.0072642 0.00678267 0.0072642 0.00678267 0.00673029 0.00624508 0.00678267 0.00612499 0.00624508 0.00575277 0.0193592 0.0198923 0.0213611 0.022018 0.022018 0.0225615 0.024543 0.0246664 0.0225615 0.0226867 0.0246664 0.0247327 0.0246472 0.0245809 0.0226163 0.0224943 0.0245809 0.0244538 0.0224943 0.021955 0.021955 0.0213048 0.0198415 0.0193124 0.0112658 0.0114043 0.0122109 0.0123494 0.0114043 0.0114739 0.0123494 0.0124654 0.00813746 0.00777269 0.0090367 0.00865509 0.00866484 0.00904807 0.00777972 0.008146 0.0124506 0.0123325 0.0114643 0.011393 0.0123325 0.012192 0.011393 0.0112533 0.00766205 0.00842816 0.00809495 0.00903782 0.00906329 0.00812271 0.00844741 0.00768362 0.00539864 0.00591642 0.00593131 0.00629596 0.00531817 0.00593131 0.00574218 0.00623355 0.00593131 0.00629596 0.00623355 0.00671769 0.00629596 0.00679334 0.00671769 0.00724061 0.00558162 0.00549366 0.00623632 0.00616429 0.00549366 0.00538602 0.00616429 0.00606235 0.00538602 0.00526708 0.00606235 0.00594923 0.00616429 0.00606235 0.00692079 0.00680179 0.00606235 0.00594923 0.00680179 0.00667453 0.00692079 0.00680179 0.00784557 0.00771311 0.00526708 0.00512864 0.00594923 0.00582351 0.00512864 0.00496509 0.00582351 0.00566239 0.00496509 0.00479178 0.00566239 0.00542293 0.00479178 0.00459303 0.00542293 0.00521129 0.00594923 0.00582351 0.00667453 0.00653269 0.00582351 0.00566239 0.00653269 0.0063141 0.00459303 0.0043918 0.00521129 0.00498764 0.0043918 0.00418377 0.00498764 0.00473673 0.00418377 0.003936 0.00473673 0.00452401 0.003936 0.00367536 0.00452401 0.0042521 0.00473673 0.00452401 0.00548024 0.00514688 0.00452401 0.0042521 0.00514688 0.00490284 0.00514688 0.00490284 0.00590412 0.00558954 0.0042521 0.00397567 0.00490284 0.00462373 0.00397567 0.00372756 0.00462373 0.00431522 0.00490284 0.00462373 0.00558954 0.00532161 0.00372756 0.00347458 0.00431522 0.00404835 0.00347458 0.00322467 0.00404835 0.00376584 0.00377125 0.0040546 0.00322999 0.00348103 0.0040546 0.00432203 0.00348103 0.00373523 0.00532544 0.00558963 0.00463031 0.00490733 0.00432203 0.00463031 0.00373523 0.00398487 0.00463031 0.00490733 0.00398487 0.00426397 0.00558963 0.00589404 0.00490733 0.00514313 0.00490733 0.00514313 0.00426397 0.00454736 0.00514313 0.00541717 0.00454736 0.00477075 0.00541717 0.00569525 0.00477075 0.00496892 0.00426397 0.00454736 0.00368562 0.00394198 0.00454736 0.00477075 0.00394198 0.00417928 0.00477075 0.00496892 0.00417928 0.00439707 0.00496892 0.00524115 0.00439707 0.00458489 0.00705685 0.00728977 0.00619426 0.00640252 0.00619426 0.00640252 0.00545072 0.00570196 0.00640252 0.00654627 0.00570196 0.00590092 0.00654627 0.00669657 0.00590092 0.00599727 0.00590092 0.00599727 0.00509205 0.00528954 0.0077304 0.00785358 0.00682473 0.00693758 0.00669657 0.00682473 0.00599727 0.00609058 0.00682473 0.00693758 0.00609058 0.00618481 0.00599727 0.00609058 0.00528954 0.00541065 0.00609058 0.00618481 0.00541065 0.005515 0.00618481 0.00625227 0.005515 0.00559927 0.00725421 0.00673029 0.00680107 0.00630475 0.00673029 0.00624508 0.00630475 0.0059403 0.00624508 0.00575277 0.0059403 0.00532682 0.00630475 0.0059403 0.00592195 0.00540509 0.0224999 0.02219 0.0235094 0.0231447 0.0277738 0.0281636 0.0289575 0.0293442 0.0281636 0.0283254 0.0293442 0.0295285 0.0289575 0.0293442 0.0296621 0.0300471 0.0293442 0.0295285 0.0300471 0.0302154 0.0283254 0.0282205 0.0295285 0.0295314 0.0295285 0.0295314 0.0302154 0.0301467 0.0295314 0.0292971 0.0301467 0.0298602 0.0296621 0.0300471 0.0298939 0.030277 0.0300471 0.0302154 0.030277 0.0304262 0.0298939 0.030277 0.0296515 0.030045 0.030277 0.0304262 0.030045 0.030204 0.0302154 0.0301467 0.0304262 0.0303513 0.0301467 0.0298602 0.0303513 0.0300559 0.0304262 0.0303513 0.030204 0.0301329 0.0303513 0.0300559 0.0301329 0.0298435 0.0238768 0.0234464 0.023666 0.0233408 0.0234464 0.0230716 0.0233408 0.0230738 0.023666 0.0233408 0.023361 0.0231134 0.0233408 0.0230738 0.0231134 0.0229414 0.0230716 0.022757 0.0230738 0.0228665 0.022757 0.0225033 0.0228665 0.0227241 0.0230738 0.0228665 0.0229414 0.0228349 0.0228665 0.0227241 0.0228349 0.0227972 0.0215592 0.0214581 0.0221886 0.0222606 0.0225033 0.0223157 0.0227241 0.0226532 0.0223157 0.0222016 0.0226532 0.0226617 0.0227241 0.0226532 0.0227972 0.0228322 0.0226532 0.0226617 0.0228322 0.0229365 0.0222016 0.0221886 0.0226617 0.0227401 0.0221886 0.0222606 0.0227401 0.022898 0.0226617 0.0227401 0.0229365 0.0231074 0.0227401 0.022898 0.0231074 0.023355 0.0251455 0.0252737 0.0269958 0.027096 0.0269958 0.027096 0.028428 0.028497 0.0252737 0.0251807 0.027096 0.0269739 0.0251807 0.0248879 0.0269739 0.0266323 0.027096 0.0269739 0.028497 0.0283504 0.0269739 0.0266323 0.0283504 0.0279783 0.0280071 0.028428 0.0291297 0.0294062 0.028428 0.028497 0.0294062 0.0294844 0.0291297 0.0294062 0.0297445 0.0300207 0.0294062 0.0294844 0.0300207 0.0300757 0.028497 0.0283504 0.0294844 0.0293246 0.0283504 0.0279783 0.0293246 0.0289329 0.0294844 0.0293246 0.0300757 0.0299059 0.0293246 0.0289329 0.0299059 0.0294977 0.0296515 0.030045 0.0289665 0.0293891 0.030045 0.030204 0.0293891 0.0295649 0.0289665 0.0293891 0.0279653 0.028361 0.0293891 0.0295649 0.028361 0.0285241 0.030204 0.0301329 0.0295649 0.0295015 0.0301329 0.0298435 0.0295015 0.0292074 0.0295649 0.0295015 0.0285241 0.0284595 0.0295015 0.0292074 0.0284595 0.0281652 0.0279653 0.028361 0.0266107 0.0269564 0.028361 0.0285241 0.0269564 0.0270823 0.0266107 0.0269564 0.0248663 0.0251532 0.0269564 0.0270823 0.0251532 0.0252429 0.0285241 0.0284595 0.0270823 0.0269901 0.0284595 0.0281652 0.0269901 0.0266733 0.0270823 0.0269901 0.0252429 0.0251037 0.0269901 0.0266733 0.0251037 0.0247412 0.023361 0.0231134 0.0228985 0.0227423 0.0231134 0.0229414 0.0227423 0.0226624 0.0228985 0.0227423 0.022269 0.0221922 0.0227423 0.0226624 0.0221922 0.0221998 0.0229414 0.0228349 0.0226624 0.0226511 0.0228349 0.0227972 0.0226511 0.0227187 0.0226624 0.0226511 0.0221998 0.0223097 0.0226511 0.0227187 0.0223097 0.0224929 0.022269 0.0221922 0.021473 0.0215652 0.0227972 0.0228322 0.0227187 0.022858 0.0228322 0.0229365 0.022858 0.0230625 0.0227187 0.022858 0.0224929 0.0227423 0.022858 0.0230625 0.0227423 0.0230528 0.0229365 0.0231074 0.0230625 0.0233272 0.0231074 0.023355 0.0233272 0.0236489 0.0230625 0.0233272 0.0230528 0.0234238 0.0233272 0.0236489 0.0234238 0.0238511 0.0297445 0.0300207 0.029948 0.0302203 0.0300207 0.0300757 0.0302203 0.0302679 0.029948 0.0302203 0.0297638 0.030015 0.0302203 0.0302679 0.030015 0.0300519 0.0300757 0.0299059 0.0302679 0.0300895 0.0299059 0.0294977 0.0300895 0.0296801 0.0302679 0.0300895 0.0300519 0.029857 0.0300895 0.0296801 0.029857 0.0294282 0.0297638 0.030015 0.0292001 0.029461 0.030015 0.0300519 0.029461 0.0294127 0.0300519 0.029857 0.0294127 0.0291672 0.029857 0.0294282 0.0291672 0.0287138 0.0294127 0.0291672 0.0281206 0.0279981 0.0291672 0.0287138 0.0279981 0.0276203 0.0135823 0.0133043 0.0146953 0.014392 0.014943 0.0146953 0.016031 0.0158729 0.015818 0.0159873 0.0146971 0.0149086 0.0144008 0.0146971 0.0132997 0.0135817 0.0248879 0.0243969 0.0266323 0.0260559 0.0243969 0.0235391 0.0260559 0.0252695 0.0266323 0.0260559 0.0279783 0.0273836 0.0260559 0.0252695 0.0273836 0.0265657 0.0279783 0.0273836 0.0289329 0.028315 0.0273836 0.0265657 0.028315 0.0274693 0.0289329 0.028315 0.0294977 0.0288483 0.028315 0.0274693 0.0288483 0.0279806 0.0288848 0.0296515 0.0283076 0.0289665 0.0272417 0.0283076 0.0265502 0.0273495 0.0283076 0.0289665 0.0273495 0.0279653 0.0265502 0.0273495 0.0252543 0.0260405 0.0273495 0.0279653 0.0260405 0.0266107 0.0252543 0.0260405 0.0235294 0.0243815 0.0260405 0.0266107 0.0243815 0.0248663 0.024062 0.024543 0.0261224 0.0265337 0.024543 0.0246664 0.0265337 0.0267249 0.0261224 0.0265337 0.0277738 0.0281636 0.0265337 0.0267249 0.0281636 0.0283254 0.0292971 0.0287997 0.0298602 0.0293839 0.0287997 0.0280454 0.0293839 0.0287226 0.0298602 0.0293839 0.0300559 0.029524 0.0293839 0.0287226 0.029524 0.0286471 0.0300559 0.029524 0.0298435 0.0293466 0.0243471 0.0238768 0.0240947 0.023666 0.0240947 0.023666 0.0237019 0.023361 0.0214581 0.0214744 0.0222606 0.0224174 0.0222606 0.0224174 0.022898 0.0231494 0.022898 0.0231494 0.023355 0.0236882 0.0285289 0.0291297 0.0292572 0.0297445 0.0298435 0.0293466 0.0292074 0.0286115 0.0237019 0.023361 0.0231375 0.0228985 0.0231375 0.0228985 0.0224309 0.022269 0.0224309 0.022269 0.021506 0.021473 0.023355 0.0236882 0.0236489 0.0240731 0.0236489 0.0240731 0.0238511 0.0243186 0.0292572 0.0297445 0.0294305 0.029948 0.0285617 0.0294305 0.0286316 0.0292887 0.0294305 0.029948 0.0292887 0.0297638 0.0286316 0.0292887 0.027954 0.0287047 0.0292887 0.0297638 0.0287047 0.0292001 0.0281206 0.0279981 0.0266079 0.0264058 0.0279981 0.0276203 0.0264058 0.0260005 0.0266079 0.0264058 0.0245809 0.0244538 0.0264058 0.0260005 0.0244538 0.0239813 0.0158729 0.0156743 0.0171017 0.0167596 0.00865509 0.00824942 0.00956888 0.00926647 0.00824942 0.00797589 0.00926647 0.00896386 0.00896857 0.00927693 0.00797908 0.00825589 0.00927693 0.00958326 0.00825589 0.00866484 0.0201474 0.0196075 0.0226957 0.0221757 0.0196075 0.0188088 0.0221757 0.0212938 0.0226957 0.0221757 0.0248879 0.0243969 0.0243815 0.0248663 0.0221655 0.0226792 0.0212892 0.0221655 0.0188112 0.019607 0.0221655 0.0226792 0.019607 0.0201429 0.00333206 0.00303084 0.00385467 0.00357465 0.00303084 0.00255769 0.00357465 0.00361779 0.00357465 0.00361779 0.00393902 0.00349871 0.00393902 0.00349871 0.00459683 0.00419034 0.00419903 0.00460669 0.00350644 0.00394791 0.00350644 0.00394791 0.00362601 0.00358269 0.00362601 0.00358269 0.00256356 0.00303772 0.00358269 0.00386313 0.00303772 0.0033391 0.00367536 0.00341817 0.0042521 0.00397567 0.00341817 0.00317651 0.00397567 0.00372756 0.00317651 0.00294802 0.00372756 0.00347458 0.00294802 0.00272374 0.00347458 0.00322467 0.00322999 0.00348103 0.00272842 0.00295375 0.00348103 0.00373523 0.00295375 0.00318341 0.00373523 0.00398487 0.00318341 0.00342636 0.00398487 0.00426397 0.00342636 0.00368562 0.00448648 0.00519256 0.00488456 0.0054282 0.00519256 0.00574218 0.0054282 0.00611281 0.00488456 0.0054282 0.00519259 0.00575374 0.00519259 0.00575374 0.00558077 0.00620735 0.00558077 0.00620735 0.00608097 0.00677737 0.00679367 0.00609805 0.00622146 0.00559482 0.00622146 0.00559482 0.00576616 0.00520474 0.00576616 0.00520474 0.00543942 0.00489517 0.00612499 0.00543942 0.00575277 0.00520239 0.00543942 0.00489517 0.00520239 0.00449557 0.00681685 0.00698511 0.00730865 0.00769074 0.00762083 0.00731552 0.00832413 0.00806968 0.00731552 0.00701896 0.00806968 0.00778427 0.00590412 0.00558954 0.00664787 0.00629967 0.00701896 0.00664787 0.00778427 0.00748596 0.00664787 0.00629967 0.00748596 0.00713619 0.00832413 0.00806968 0.00930125 0.00892022 0.00806968 0.00778427 0.00892022 0.00859054 0.00778427 0.00748596 0.00859054 0.00825156 0.00748596 0.00713619 0.00825156 0.00787933 0.00787568 0.00824132 0.00713449 0.00748205 0.00824132 0.00856829 0.00748205 0.00777721 0.00856829 0.00887754 0.00777721 0.00806709 0.00887754 0.00918528 0.00806709 0.00834428 0.00713449 0.00748205 0.00629941 0.00664887 0.00748205 0.00777721 0.00664887 0.00702078 0.00629941 0.00664887 0.00558963 0.00589404 0.00777721 0.00806709 0.00702078 0.00730623 0.00806709 0.00834428 0.00730623 0.00759694 0.00918528 0.00949632 0.00834428 0.00861169 0.00949632 0.00986107 0.00861169 0.00882569 0.00834428 0.00861169 0.00759694 0.0078356 0.00861169 0.00882569 0.0078356 0.00808567 0.00759694 0.0078356 0.00674447 0.00705685 0.0078356 0.00808567 0.00705685 0.00728977 0.00769081 0.00730953 0.00698579 0.00681741 0.00576384 0.00514675 0.00649162 0.00575592 0.005761 0.00649857 0.00515287 0.00577149 0.00181279 0.00213421 0.00196039 0.00224883 0.00196039 0.00224883 0.00208692 0.00250995 0.00294256 0.00281189 0.00353821 0.00352629 0.00442291 0.00452078 0.00509699 0.00515722 0.00504553 0.00509699 0.00565651 0.0057825 0.00452078 0.00461652 0.00515722 0.00521779 0.0103872 0.0104936 0.0112658 0.0114043 0.0018781 0.0016984 0.00226526 0.00210347 0.00272374 0.0025109 0.00322467 0.0029761 0.0025109 0.00230524 0.0029761 0.00275918 0.00230524 0.00208644 0.00275918 0.00254665 0.002549 0.00276241 0.00208845 0.00230807 0.00276241 0.00298032 0.00230807 0.00251461 0.00298032 0.00322999 0.00251461 0.00272842 0.00209546 0.0022543 0.00168923 0.00186827 0.011393 0.0112533 0.010487 0.0103801 0.00522531 0.00516401 0.0046247 0.00452806 0.00578764 0.00566092 0.00510288 0.0050505 0.00516401 0.00510288 0.00452806 0.00442932 0.00354192 0.00355268 0.00282562 0.00295615 0.00251298 0.00208975 0.00225136 0.00196281 0.00225136 0.00196281 0.00213637 0.00181489 0.0194392 0.0195824 0.0206852 0.0208866 0.0210394 0.0207248 0.019572 0.019473 0.0150131 0.0150209 0.0161323 0.0160818 0.0150209 0.014943 0.0160818 0.016031 0.0159873 0.0160424 0.0149086 0.0149922 0.0160424 0.0160946 0.0149922 0.0149849 0.0246664 0.0247327 0.0267249 0.0266598 0.0247327 0.0247191 0.0266598 0.0263952 0.0267249 0.0266598 0.0283254 0.0282205 0.0266598 0.0263952 0.0282205 0.0278525 0.0214102 0.0213661 0.0228391 0.0226828 0.0228943 0.0228391 0.0243518 0.0241329 0.0228391 0.0226828 0.0241329 0.0239356 0.0247191 0.0245998 0.0263952 0.0260187 0.0245998 0.0243518 0.0260187 0.0256739 0.0263952 0.0260187 0.0278525 0.0273616 0.0260187 0.0256739 0.0273616 0.0268313 0.0243518 0.0241329 0.0256739 0.0253176 0.0241329 0.0239356 0.0253176 0.0248312 0.0256739 0.0253176 0.0268313 0.0263551 0.0218308 