# vtk DataFile Version 3.0
#This file was generated by the deal.II library on 2020/3/19 at 1:35:12
ASCII
DATASET UNSTRUCTURED_GRID

POINTS 4096 double
-1 -1 0
-0.9375 -1 0
-1 -0.9375 0
-0.9375 -0.9375 0
-0.9375 -1 0
-0.875 -1 0
-0.9375 -0.9375 0
-0.875 -0.9375 0
-1 -0.9375 0
-0.9375 -0.9375 0
-1 -0.875 0
-0.9375 -0.875 0
-0.9375 -0.9375 0
-0.875 -0.9375 0
-0.9375 -0.875 0
-0.875 -0.875 0
-0.875 -1 0
-0.8125 -1 0
-0.875 -0.9375 0
-0.8125 -0.9375 0
-0.8125 -1 0
-0.75 -1 0
-0.8125 -0.9375 0
-0.75 -0.9375 0
-0.875 -0.9375 0
-0.8125 -0.9375 0
-0.875 -0.875 0
-0.8125 -0.875 0
-0.8125 -0.9375 0
-0.75 -0.9375 0
-0.8125 -0.875 0
-0.75 -0.875 0
-1 -0.875 0
-0.9375 -0.875 0
-1 -0.8125 0
-0.9375 -0.8125 0
-0.9375 -0.875 0
-0.875 -0.875 0
-0.9375 -0.8125 0
-0.875 -0.8125 0
-1 -0.8125 0
-0.9375 -0.8125 0
-1 -0.75 0
-0.9375 -0.75 0
-0.9375 -0.8125 0
-0.875 -0.8125 0
-0.9375 -0.75 0
-0.875 -0.75 0
-0.875 -0.875 0
-0.8125 -0.875 0
-0.875 -0.8125 0
-0.8125 -0.8125 0
-0.8125 -0.875 0
-0.75 -0.875 0
-0.8125 -0.8125 0
-0.75 -0.8125 0
-0.875 -0.8125 0
-0.8125 -0.8125 0
-0.875 -0.75 0
-0.8125 -0.75 0
-0.8125 -0.8125 0
-0.75 -0.8125 0
-0.8125 -0.75 0
-0.75 -0.75 0
-0.75 -1 0
-0.6875 -1 0
-0.75 -0.9375 0
-0.6875 -0.9375 0
-0.6875 -1 0
-0.625 -1 0
-0.6875 -0.9375 0
-0.625 -0.9375 0
-0.75 -0.9375 0
-0.6875 -0.9375 0
-0.75 -0.875 0
-0.6875 -0.875 0
-0.6875 -0.9375 0
-0.625 -0.9375 0
-0.6875 -0.875 0
-0.625 -0.875 0
-0.625 -1 0
-0.5625 -1 0
-0.625 -0.9375 0
-0.5625 -0.9375 0
-0.5625 -1 0
-0.5 -1 0
-0.5625 -0.9375 0
-0.5 -0.9375 0
-0.625 -0.9375 0
-0.5625 -0.9375 0
-0.625 -0.875 0
-0.5625 -0.875 0
-0.5625 -0.9375 0
-0.5 -0.9375 0
-0.5625 -0.875 0
-0.5 -0.875 0
-0.75 -0.875 0
-0.6875 -0.875 0
-0.75 -0.8125 0
-0.6875 -0.8125 0
-0.6875 -0.875 0
-0.625 -0.875 0
-0.6875 -0.8125 0
-0.625 -0.8125 0
-0.75 -0.8125 0
-0.6875 -0.8125 0
-0.75 -0.75 0
-0.6875 -0.75 0
-0.6875 -0.8125 0
-0.625 -0.8125 0
-0.6875 -0.75 0
-0.625 -0.75 0
-0.625 -0.875 0
-0.5625 -0.875 0
-0.625 -0.8125 0
-0.5625 -0.8125 0
-0.5625 -0.875 0
-0.5 -0.875 0
-0.5625 -0.8125 0
-0.5 -0.8125 0
-0.625 -0.8125 0
-0.5625 -0.8125 0
-0.625 -0.75 0
-0.5625 -0.75 0
-0.5625 -0.8125 0
-0.5 -0.8125 0
-0.5625 -0.75 0
-0.5 -0.75 0
-1 -0.75 0
-0.9375 -0.75 0
-1 -0.6875 0
-0.9375 -0.6875 0
-0.9375 -0.75 0
-0.875 -0.75 0
-0.9375 -0.6875 0
-0.875 -0.6875 0
-1 -0.6875 0
-0.9375 -0.6875 0
-1 -0.625 0
-0.9375 -0.625 0
-0.9375 -0.6875 0
-0.875 -0.6875 0
-0.9375 -0.625 0
-0.875 -0.625 0
-0.875 -0.75 0
-0.8125 -0.75 0
-0.875 -0.6875 0
-0.8125 -0.6875 0
-0.8125 -0.75 0
-0.75 -0.75 0
-0.8125 -0.6875 0
-0.75 -0.6875 0
-0.875 -0.6875 0
-0.8125 -0.6875 0
-0.875 -0.625 0
-0.8125 -0.625 0
-0.8125 -0.6875 0
-0.75 -0.6875 0
-0.8125 -0.625 0
-0.75 -0.625 0
-1 -0.625 0
-0.9375 -0.625 0
-1 -0.5625 0
-0.9375 -0.5625 0
-0.9375 -0.625 0
-0.875 -0.625 0
-0.9375 -0.5625 0
-0.875 -0.5625 0
-1 -0.5625 0
-0.9375 -0.5625 0
-1 -0.5 0
-0.9375 -0.5 0
-0.9375 -0.5625 0
-0.875 -0.5625 0
-0.9375 -0.5 0
-0.875 -0.5 0
-0.875 -0.625 0
-0.8125 -0.625 0
-0.875 -0.5625 0
-0.8125 -0.5625 0
-0.8125 -0.625 0
-0.75 -0.625 0
-0.8125 -0.5625 0
-0.75 -0.5625 0
-0.875 -0.5625 0
-0.8125 -0.5625 0
-0.875 -0.5 0
-0.8125 -0.5 0
-0.8125 -0.5625 0
-0.75 -0.5625 0
-0.8125 -0.5 0
-0.75 -0.5 0
-0.75 -0.75 0
-0.6875 -0.75 0
-0.75 -0.6875 0
-0.6875 -0.6875 0
-0.6875 -0.75 0
-0.625 -0.75 0
-0.6875 -0.6875 0
-0.625 -0.6875 0
-0.75 -0.6875 0
-0.6875 -0.6875 0
-0.75 -0.625 0
-0.6875 -0.625 0
-0.6875 -0.6875 0
-0.625 -0.6875 0
-0.6875 -0.625 0
-0.625 -0.625 0
-0.625 -0.75 0
-0.5625 -0.75 0
-0.625 -0.6875 0
-0.5625 -0.6875 0
-0.5625 -0.75 0
-0.5 -0.75 0
-0.5625 -0.6875 0
-0.5 -0.6875 0
-0.625 -0.6875 0
-0.5625 -0.6875 0
-0.625 -0.625 0
-0.5625 -0.625 0
-0.5625 -0.6875 0
-0.5 -0.6875 0
-0.5625 -0.625 0
-0.5 -0.625 0
-0.75 -0.625 0
-0.6875 -0.625 0
-0.75 -0.5625 0
-0.6875 -0.5625 0
-0.6875 -0.625 0
-0.625 -0.625 0
-0.6875 -0.5625 0
-0.625 -0.5625 0
-0.75 -0.5625 0
-0.6875 -0.5625 0
-0.75 -0.5 0
-0.6875 -0.5 0
-0.6875 -0.5625 0
-0.625 -0.5625 0
-0.6875 -0.5 0
-0.625 -0.5 0
-0.625 -0.625 0
-0.5625 -0.625 0
-0.625 -0.5625 0
-0.5625 -0.5625 0
-0.5625 -0.625 0
-0.5 -0.625 0
-0.5625 -0.5625 0
-0.5 -0.5625 0
-0.625 -0.5625 0
-0.5625 -0.5625 0
-0.625 -0.5 0
-0.5625 -0.5 0
-0.5625 -0.5625 0
-0.5 -0.5625 0
-0.5625 -0.5 0
-0.5 -0.5 0
-0.5 -1 0
-0.4375 -1 0
-0.5 -0.9375 0
-0.4375 -0.9375 0
-0.4375 -1 0
-0.375 -1 0
-0.4375 -0.9375 0
-0.375 -0.9375 0
-0.5 -0.9375 0
-0.4375 -0.9375 0
-0.5 -0.875 0
-0.4375 -0.875 0
-0.4375 -0.9375 0
-0.375 -0.9375 0
-0.4375 -0.875 0
-0.375 -0.875 0
-0.375 -1 0
-0.3125 -1 0
-0.375 -0.9375 0
-0.3125 -0.9375 0
-0.3125 -1 0
-0.25 -1 0
-0.3125 -0.9375 0
-0.25 -0.9375 0
-0.375 -0.9375 0
-0.3125 -0.9375 0
-0.375 -0.875 0
-0.3125 -0.875 0
-0.3125 -0.9375 0
-0.25 -0.9375 0
-0.3125 -0.875 0
-0.25 -0.875 0
-0.5 -0.875 0
-0.4375 -0.875 0
-0.5 -0.8125 0
-0.4375 -0.8125 0
-0.4375 -0.875 0
-0.375 -0.875 0
-0.4375 -0.8125 0
-0.375 -0.8125 0
-0.5 -0.8125 0
-0.4375 -0.8125 0
-0.5 -0.75 0
-0.4375 -0.75 0
-0.4375 -0.8125 0
-0.375 -0.8125 0
-0.4375 -0.75 0
-0.375 -0.75 0
-0.375 -0.875 0
-0.3125 -0.875 0
-0.375 -0.8125 0
-0.3125 -0.8125 0
-0.3125 -0.875 0
-0.25 -0.875 0
-0.3125 -0.8125 0
-0.25 -0.8125 0
-0.375 -0.8125 0
-0.3125 -0.8125 0
-0.375 -0.75 0
-0.3125 -0.75 0
-0.3125 -0.8125 0
-0.25 -0.8125 0
-0.3125 -0.75 0
-0.25 -0.75 0
-0.25 -1 0
-0.1875 -1 0
-0.25 -0.9375 0
-0.1875 -0.9375 0
-0.1875 -1 0
-0.125 -1 0
-0.1875 -0.9375 0
-0.125 -0.9375 0
-0.25 -0.9375 0
-0.1875 -0.9375 0
-0.25 -0.875 0
-0.1875 -0.875 0
-0.1875 -0.9375 0
-0.125 -0.9375 0
-0.1875 -0.875 0
-0.125 -0.875 0
-0.125 -1 0
-0.0625 -1 0
-0.125 -0.9375 0
-0.0625 -0.9375 0
-0.0625 -1 0
0 -1 0
-0.0625 -0.9375 0
0 -0.9375 0
-0.125 -0.9375 0
-0.0625 -0.9375 0
-0.125 -0.875 0
-0.0625 -0.875 0
-0.0625 -0.9375 0
0 -0.9375 0
-0.0625 -0.875 0
0 -0.875 0
-0.25 -0.875 0
-0.1875 -0.875 0
-0.25 -0.8125 0
-0.1875 -0.8125 0
-0.1875 -0.875 0
-0.125 -0.875 0
-0.1875 -0.8125 0
-0.125 -0.8125 0
-0.25 -0.8125 0
-0.1875 -0.8125 0
-0.25 -0.75 0
-0.1875 -0.75 0
-0.1875 -0.8125 0
-0.125 -0.8125 0
-0.1875 -0.75 0
-0.125 -0.75 0
-0.125 -0.875 0
-0.0625 -0.875 0
-0.125 -0.8125 0
-0.0625 -0.8125 0
-0.0625 -0.875 0
0 -0.875 0
-0.0625 -0.8125 0
0 -0.8125 0
-0.125 -0.8125 0
-0.0625 -0.8125 0
-0.125 -0.75 0
-0.0625 -0.75 0
-0.0625 -0.8125 0
0 -0.8125 0
-0.0625 -0.75 0
0 -0.75 0
-0.5 -0.75 0
-0.4375 -0.75 0
-0.5 -0.6875 0
-0.4375 -0.6875 0
-0.4375 -0.75 0
-0.375 -0.75 0
-0.4375 -0.6875 0
-0.375 -0.6875 0
-0.5 -0.6875 0
-0.4375 -0.6875 0
-0.5 -0.625 0
-0.4375 -0.625 0
-0.4375 -0.6875 0
-0.375 -0.6875 0
-0.4375 -0.625 0
-0.375 -0.625 0
-0.375 -0.75 0
-0.3125 -0.75 0
-0.375 -0.6875 0
-0.3125 -0.6875 0
-0.3125 -0.75 0
-0.25 -0.75 0
-0.3125 -0.6875 0
-0.25 -0.6875 0
-0.375 -0.6875 0
-0.3125 -0.6875 0
-0.375 -0.625 0
-0.3125 -0.625 0
-0.3125 -0.6875 0
-0.25 -0.6875 0
-0.3125 -0.625 0
-0.25 -0.625 0
-0.5 -0.625 0
-0.4375 -0.625 0
-0.5 -0.5625 0
-0.4375 -0.5625 0
-0.4375 -0.625 0
-0.375 -0.625 0
-0.4375 -0.5625 0
-0.375 -0.5625 0
-0.5 -0.5625 0
-0.4375 -0.5625 0
-0.5 -0.5 0
-0.4375 -0.5 0
-0.4375 -0.5625 0
-0.375 -0.5625 0
-0.4375 -0.5 0
-0.375 -0.5 0
-0.375 -0.625 0
-0.3125 -0.625 0
-0.375 -0.5625 0
-0.3125 -0.5625 0
-0.3125 -0.625 0
-0.25 -0.625 0
-0.3125 -0.5625 0
-0.25 -0.5625 0
-0.375 -0.5625 0
-0.3125 -0.5625 0
-0.375 -0.5 0
-0.3125 -0.5 0
-0.3125 -0.5625 0
-0.25 -0.5625 0
-0.3125 -0.5 0
-0.25 -0.5 0
-0.25 -0.75 0
-0.1875 -0.75 0
-0.25 -0.6875 0
-0.1875 -0.6875 0
-0.1875 -0.75 0
-0.125 -0.75 0
-0.1875 -0.6875 0
-0.125 -0.6875 0
-0.25 -0.6875 0
-0.1875 -0.6875 0
-0.25 -0.625 0
-0.1875 -0.625 0
-0.1875 -0.6875 0
-0.125 -0.6875 0
-0.1875 -0.625 0
-0.125 -0.625 0
-0.125 -0.75 0
-0.0625 -0.75 0
-0.125 -0.6875 0
-0.0625 -0.6875 0
-0.0625 -0.75 0
0 -0.75 0
-0.0625 -0.6875 0
0 -0.6875 0
-0.125 -0.6875 0
-0.0625 -0.6875 0
-0.125 -0.625 0
-0.0625 -0.625 0
-0.0625 -0.6875 0
0 -0.6875 0
-0.0625 -0.625 0
0 -0.625 0
-0.25 -0.625 0
-0.1875 -0.625 0
-0.25 -0.5625 0
-0.1875 -0.5625 0
-0.1875 -0.625 0
-0.125 -0.625 0
-0.1875 -0.5625 0
-0.125 -0.5625 0
-0.25 -0.5625 0
-0.1875 -0.5625 0
-0.25 -0.5 0
-0.1875 -0.5 0
-0.1875 -0.5625 0
-0.125 -0.5625 0
-0.1875 -0.5 0
-0.125 -0.5 0
-0.125 -0.625 0
-0.0625 -0.625 0
-0.125 -0.5625 0
-0.0625 -0.5625 0
-0.0625 -0.625 0
0 -0.625 0
-0.0625 -0.5625 0
0 -0.5625 0
-0.125 -0.5625 0
-0.0625 -0.5625 0
-0.125 -0.5 0
-0.0625 -0.5 0
-0.0625 -0.5625 0
0 -0.5625 0
-0.0625 -0.5 0
0 -0.5 0
-1 -0.5 0
-0.9375 -0.5 0
-1 -0.4375 0
-0.9375 -0.4375 0
-0.9375 -0.5 0
-0.875 -0.5 0
-0.9375 -0.4375 0
-0.875 -0.4375 0
-1 -0.4375 0
-0.9375 -0.4375 0
-1 -0.375 0
-0.9375 -0.375 0
-0.9375 -0.4375 0
-0.875 -0.4375 0
-0.9375 -0.375 0
-0.875 -0.375 0
-0.875 -0.5 0
-0.8125 -0.5 0
-0.875 -0.4375 0
-0.8125 -0.4375 0
-0.8125 -0.5 0
-0.75 -0.5 0
-0.8125 -0.4375 0
-0.75 -0.4375 0
-0.875 -0.4375 0
-0.8125 -0.4375 0
-0.875 -0.375 0
-0.8125 -0.375 0
-0.8125 -0.4375 0
-0.75 -0.4375 0
-0.8125 -0.375 0
-0.75 -0.375 0
-1 -0.375 0
-0.9375 -0.375 0
-1 -0.3125 0
-0.9375 -0.3125 0
-0.9375 -0.375 0
-0.875 -0.375 0
-0.9375 -0.3125 0
-0.875 -0.3125 0
-1 -0.3125 0
-0.9375 -0.3125 0
-1 -0.25 0
-0.9375 -0.25 0
-0.9375 -0.3125 0
-0.875 -0.3125 0
-0.9375 -0.25 0
-0.875 -0.25 0
-0.875 -0.375 0
-0.8125 -0.375 0
-0.875 -0.3125 0
-0.8125 -0.3125 0
-0.8125 -0.375 0
-0.75 -0.375 0
-0.8125 -0.3125 0
-0.75 -0.3125 0
-0.875 -0.3125 0
-0.8125 -0.3125 0
-0.875 -0.25 0
-0.8125 -0.25 0
-0.8125 -0.3125 0
-0.75 -0.3125 0
-0.8125 -0.25 0
-0.75 -0.25 0
-0.75 -0.5 0
-0.6875 -0.5 0
-0.75 -0.4375 0
-0.6875 -0.4375 0
-0.6875 -0.5 0
-0.625 -0.5 0
-0.6875 -0.4375 0
-0.625 -0.4375 0
-0.75 -0.4375 0
-0.6875 -0.4375 0
-0.75 -0.375 0
-0.6875 -0.375 0
-0.6875 -0.4375 0
-0.625 -0.4375 0
-0.6875 -0.375 0
-0.625 -0.375 0
-0.625 -0.5 0
-0.5625 -0.5 0
-0.625 -0.4375 0
-0.5625 -0.4375 0
-0.5625 -0.5 0
-0.5 -0.5 0
-0.5625 -0.4375 0
-0.5 -0.4375 0
-0.625 -0.4375 0
-0.5625 -0.4375 0
-0.625 -0.375 0
-0.5625 -0.375 0
-0.5625 -0.4375 0
-0.5 -0.4375 0
-0.5625 -0.375 0
-0.5 -0.375 0
-0.75 -0.375 0
-0.6875 -0.375 0
-0.75 -0.3125 0
-0.6875 -0.3125 0
-0.6875 -0.375 0
-0.625 -0.375 0
-0.6875 -0.3125 0
[...]
POINT_DATA 4096
SCALARS x_displacement double 1
LOOKUP_TABLE default
0 0 0 4.85174e-05 0 0 4.85174e-05 7.31839e-05 0 4.85174e-05 0 3.62321e-05 4.85174e-05 7.31839e-05 3.62321e-05 5.53014e-05 0 0 7.31839e-05 0.000103717 0 0 0.000103717 0.00013273 7.31839e-05 0.000103717 5.53014e-05 7.84341e-05 0.000103717 0.00013273 7.84341e-05 0.000100548 0 3.62321e-05 0 3.93483e-05 3.62321e-05 5.53014e-05 3.93483e-05 5.96739e-05 0 3.93483e-05 0 3.85543e-05 3.93483e-05 5.96739e-05 3.85543e-05 5.86005e-05 5.53014e-05 7.84341e-05 5.96739e-05 8.46047e-05 7.84341e-05 0.000100548 8.46047e-05 0.000108357 5.96739e-05 8.46047e-05 5.86005e-05 8.30917e-05 8.46047e-05 0.000108357 8.30917e-05 0.000106454 0 0 0.00013273 0.000162449 0 0 0.000162449 0.000195771 0.00013273 0.000162449 0.000100548 0.000123164 0.000162449 0.000195771 0.000123164 0.000148536 0 0 0.000195771 0.000237745 0 0 0.000237745 0.000290868 0.000195771 0.000237745 0.000148536 0.000180468 0.000237745 0.000290868 0.000180468 0.000220858 0.000100548 0.000123164 0.000108357 0.000132671 0.000123164 0.000148536 0.000132671 0.000159939 0.000108357 0.000132671 0.000106454 0.00013036 0.000132671 0.000159939 0.00013036 0.000157175 0.000148536 0.000180468 0.000159939 0.000194273 0.000180468 0.000220858 0.000194273 0.000237715 0.000159939 0.000194273 0.000157175 0.000190933 0.000194273 0.000237715 0.000190933 0.000233642 0 3.85543e-05 0 3.87666e-05 3.85543e-05 5.86005e-05 3.87666e-05 5.88802e-05 0 3.87666e-05 0 3.86719e-05 3.87666e-05 5.88802e-05 3.86719e-05 5.87425e-05 5.86005e-05 8.30917e-05 5.88802e-05 8.34865e-05 8.30917e-05 0.000106454 8.34865e-05 0.000106949 5.88802e-05 8.34865e-05 5.87425e-05 8.32883e-05 8.34865e-05 0.000106949 8.32883e-05 0.000106696 0 3.86719e-05 0 3.88563e-05 3.86719e-05 5.87425e-05 3.88563e-05 5.90582e-05 0 3.88563e-05 0 3.81734e-05 3.88563e-05 5.90582e-05 3.81734e-05 5.78284e-05 5.87425e-05 8.32883e-05 5.90582e-05 8.37519e-05 8.32883e-05 0.000106696 8.37519e-05 0.000107302 5.90582e-05 8.37519e-05 5.78284e-05 8.19362e-05 8.37519e-05 0.000107302 8.19362e-05 0.000104912 0.000106454 0.00013036 0.000106949 0.00013096 0.00013036 0.000157175 0.00013096 0.00015789 0.000106949 0.00013096 0.000106696 0.00013065 0.00013096 0.00015789 0.00013065 0.000157522 0.000157175 0.000190933 0.00015789 0.000191794 0.000190933 0.000233642 0.000191794 0.000234684 0.00015789 0.000191794 0.000157522 0.000191357 0.000191794 0.000234684 0.000191357 0.000234183 0.000106696 0.00013065 0.000107302 0.000131401 0.00013065 0.000157522 0.000131401 0.000158415 0.000107302 0.000131401 0.000104912 0.000128431 0.000131401 0.000158415 0.000128431 0.000154876 0.000157522 0.000191357 0.000158415 0.000192405 0.000191357 0.000234183 0.000192405 0.000235335 0.000158415 0.000192405 0.000154876 0.000188259 0.000192405 0.000235335 0.000188259 0.000230793 0 0 0.000290868 0.00035515 0 0 0.00035515 0.000431365 0.000290868 0.00035515 0.000220858 0.000269744 0.00035515 0.000431365 0.000269744 0.000327633 0 0 0.000431365 0.000512851 0 0 0.000512851 0.00061175 0.000431365 0.000512851 0.000327633 0.000389651 0.000512851 0.00061175 0.000389651 0.00046472 0.000220858 0.000269744 0.000237715 0.000290288 0.000269744 0.000327633 0.000290288 0.000352584 0.000237715 0.000290288 0.000233642 0.000285332 0.000290288 0.000352584 0.000285332 0.000346568 0.000327633 0.000389651 0.000352584 0.000419251 0.000389651 0.00046472 0.000419251 0.000500058 0.000352584 0.000419251 0.000346568 0.000412126 0.000419251 0.000500058 0.000412126 0.000491552 0 0 0.00061175 0.000655078 0 0 0.000655078 0.000434923 0.00061175 0.000655078 0.00046472 0.000496892 0.000655078 0.000434923 0.000496892 0.000329931 0 0 0.000434923 3.45868e-06 0 0 3.45868e-06 -0.000452563 0.000434923 3.45868e-06 0.000329931 2.87221e-06 3.45868e-06 -0.000452563 2.87221e-06 -0.000343525 0.00046472 0.000496892 0.000500058 0.000535097 0.000496892 0.000329931 0.000535097 0.00035528 0.000500058 0.000535097 0.000491552 0.000525856 0.000535097 0.00035528 0.000525856 0.000349147 0.000329931 2.87221e-06 0.00035528 2.95384e-06 2.87221e-06 -0.000343525 2.95384e-06 -0.000369794 0.00035528 2.95384e-06 0.000349147 2.93639e-06 2.95384e-06 -0.000369794 2.93639e-06 -0.000363478 0.000233642 0.000285332 0.000234684 0.000286587 0.000285332 0.000346568 0.000286587 0.000348078 0.000234684 0.000286587 0.000234183 0.000286025 0.000286587 0.000348078 0.000286025 0.000347457 0.000346568 0.000412126 0.000348078 0.0004139 0.000412126 0.000491552 0.0004139 0.000493659 0.000348078 0.0004139 0.000347457 0.000413215 0.0004139 0.000493659 0.000413215 0.000492894 0.000234183 0.000286025 0.000235335 0.000287233 0.000286025 0.000347457 0.000287233 0.000348671 0.000235335 0.000287233 0.000230793 0.000282507 0.000287233 0.000348671 0.000282507 0.000343973 0.000347457 0.000413215 0.000348671 0.000414446 0.000413215 0.000492894 0.000414446 0.000494143 0.000348671 0.000414446 0.000343973 0.000409739 0.000414446 0.000494143 0.000409739 0.000489436 0.000491552 0.000525856 0.000493659 0.000528151 0.000525856 0.000349147 0.000528151 0.00035069 0.000493659 0.000528151 0.000492894 0.000527338 0.000528151 0.00035069 0.000527338 0.000350059 0.000349147 2.93639e-06 0.00035069 2.99907e-06 2.93639e-06 -0.000363478 2.99907e-06 -0.000364937 0.00035069 2.99907e-06 0.000350059 2.7265e-06 2.99907e-06 -0.000364937 2.7265e-06 -0.000364846 0.000492894 0.000527338 0.000494143 0.0005286 0.000527338 0.000350059 0.0005286 0.000351275 0.000494143 0.0005286 0.000489436 0.000523889 0.0005286 0.000351275 0.000523889 0.000346581 0.000350059 2.7265e-06 0.000351275 3.85724e-06 2.7265e-06 -0.000364846 3.85724e-06 -0.000363797 0.000351275 3.85724e-06 0.000346581 -8.22222e-07 3.85724e-06 -0.000363797 -8.22222e-07 -0.000368478 0 3.81734e-05 0 4.08744e-05 3.81734e-05 5.78284e-05 4.08744e-05 6.28428e-05 0 4.08744e-05 0 3.01307e-05 4.08744e-05 6.28428e-05 3.01307e-05 4.23322e-05 5.78284e-05 8.19362e-05 6.28428e-05 8.93685e-05 8.19362e-05 0.000104912 8.93685e-05 0.000114732 6.28428e-05 8.93685e-05 4.23322e-05 5.88446e-05 8.93685e-05 0.000114732 5.88446e-05 7.42639e-05 0 3.01307e-05 0 7.29382e-05 3.01307e-05 4.23322e-05 7.29382e-05 0.000126276 0 7.29382e-05 0 -9.78685e-05 7.29382e-05 0.000126276 -9.78685e-05 -0.000217424 4.23322e-05 5.88446e-05 0.000126276 0.0001843 5.88446e-05 7.42639e-05 0.0001843 0.000241127 0.000126276 0.0001843 -0.000217424 -0.000331626 0.0001843 0.000241127 -0.000331626 -0.000447175 0.000104912 0.000128431 0.000114732 0.000140656 0.000128431 0.000154876 0.000140656 0.000169471 0.000114732 0.000140656 7.42639e-05 9.01983e-05 0.000140656 0.000169471 9.01983e-05 0.000109124 0.000154876 0.000188259 0.000169471 0.000205354 0.000188259 0.000230793 0.000205354 0.000249527 0.000169471 0.000205354 0.000109124 0.000134679 0.000205354 0.000249527 0.000134679 0.000172023 7.42639e-05 9.01983e-05 0.000241127 0.000298573 9.01983e-05 0.000109124 0.000298573 0.000358736 0.000241127 0.000298573 -0.000447175 -0.000562267 0.000298573 0.000358736 -0.000562267 -0.000673996 0.000109124 0.000134679 0.000358736 0.000426978 0.000134679 0.000172023 0.000426978 0.000492784 0.000358736 0.000426978 -0.000673996 -0.000782244 0.000426978 0.000492784 -0.000782244 -0.000835012 0 -9.78685e-05 0 0.000584611 -9.78685e-05 -0.000217424 0.000584611 0.00119038 0 0.000584611 0 0.00233278 0.000584611 0.00119038 0.00233278 0.00475808 -0.000217424 -0.000331626 0.00119038 0.0017912 -0.000331626 -0.000447175 0.0017912 0.00239305 0.00119038 0.0017912 0.00475808 0.00716098 0.0017912 0.00239305 0.00716098 0.00956926 0 0.00233278 0 0.00250557 0.00233278 0.00475808 0.00250557 0.00512989 0 0.00250557 0 0.00250399 0.00250557 0.00512989 0.00250399 0.0051226 0.00475808 0.00716098 0.00512989 0.00772544 0.00716098 0.00956926 0.00772544 0.0103285 0.00512989 0.00772544 0.0051226 0.00771349 0.00772544 0.0103285 0.00771349 0.0103119 -0.000447175 -0.000562267 0.00239305 0.00299522 -0.000562267 -0.000673996 0.00299522 0.0035998 0.00239305 0.00299522 0.00956926 0.0119764 0.00299522 0.0035998 0.0119764 0.0143496 -0.000673996 -0.000782244 0.0035998 0.00422147 -0.000782244 -0.000835012 0.00422147 0.0046625 0.0035998 0.00422147 0.0143496 0.016304 0.00422147 0.0046625 0.016304 0.0177762 0.00956926 0.0119764 0.0103285 0.0129274 0.0119764 0.0143496 0.0129274 0.0152909 0.0103285 0.0129274 0.0103119 0.0129049 0.0129274 0.0152909 0.0129049 0.0152906 0.0143496 0.016304 0.0152909 0.0172319 0.016304 0.0177762 0.0172319 0.0187545 0.0152909 0.0172319 0.0152906 0.0172441 0.0172319 0.0187545 0.0172441 0.0187603 0.000230793 0.000282507 0.000249527 0.000301992 0.000282507 0.000343973 0.000301992 0.000363346 0.000249527 0.000301992 0.000172023 0.000221385 0.000301992 0.000363346 0.000221385 0.000283137 0.000343973 0.000409739 0.000363346 0.000429129 0.000409739 0.000489436 0.000429129 0.00050881 0.000363346 0.000429129 0.000283137 0.000348877 0.000429129 0.00050881 0.000348877 0.000428621 0.000172023 0.000221385 0.000492784 0.000554993 0.000221385 0.000283137 0.000554993 0.000615363 0.000492784 0.000554993 -0.000835012 -0.000826054 0.000554993 0.000615363 -0.000826054 -0.000761008 0.000283137 0.000348877 0.000615363 0.000681182 0.000348877 0.000428621 0.000681182 0.000760699 0.000615363 0.000681182 -0.000761008 -0.000695149 0.000681182 0.000760699 -0.000695149 -0.000614815 0.000489436 0.000523889 0.00050881 0.000543265 0.000523889 0.000346581 0.000543265 0.000365929 0.00050881 0.000543265 0.000428621 0.000463077 0.000543265 0.000365929 0.000463077 0.000285843 0.000346581 -8.22222e-07 0.000365929 1.85484e-05 -8.22222e-07 -0.000368478 1.85484e-05 -0.00034902 0.000365929 1.85484e-05 0.000285843 -6.1654e-05 1.85484e-05 -0.00034902 -6.1654e-05 -0.000429601 0.000428621 0.000463077 0.000760699 0.000795124 0.000463077 0.000285843 0.000795124 0.000617495 0.000760699 0.000795124 -0.000614815 -0.000580174 0.000795124 0.000617495 -0.000580174 -0.000756256 0.000285843 -6.1654e-05 0.000617495 0.000270486 -6.1654e-05 -0.000429601 0.000270486 -9.58968e-05 0.000617495 0.000270486 -0.000756256 -0.0011053 0.000270486 -9.58968e-05 -0.0011053 -0.00147813 -0.000835012 -0.000826054 0.0046625 0.00489237 -0.000826054 -0.000761008 0.00489237 0.00494218 0.0046625 0.00489237 0.0177762 0.0187649 0.00489237 0.00494218 0.0187649 0.019272 -0.000761008 -0.000695149 0.00494218 0.00500654 -0.000695149 -0.000614815 0.00500654 0.0050839 0.00494218 0.00500654 0.019272 0.0193575 0.00500654 0.0050839 0.0193575 0.0194206 0.0177762 0.0187649 0.0187545 0.0198605 0.0187649 0.019272 0.0198605 0.0205486 0.0187545 0.0198605 0.0187603 0.0198405 0.0198605 0.0205486 0.0198405 0.0204834 0.019272 0.0193575 0.0205486 0.0208122 0.0193575 0.0194206 0.0208122 0.0208487 0.0205486 0.0208122 0.0204834 0.0206942 0.0208122 0.0208487 0.0206942 0.0206972 -0.000614815 -0.000580174 0.0050839 0.00511735 -0.000580174 -0.000756256 0.00511735 0.00493518 0.0050839 0.00511735 0.0194206 0.0194346 0.00511735 0.00493518 0.0194346 0.0192698 -0.000756256 -0.0011053 0.00493518 0.00459462 -0.0011053 -0.00147813 0.00459462 0.00424838 0.00493518 0.00459462 0.0192698 0.0190126 0.00459462 0.00424838 0.0190126 0.0187704 0.0194206 0.0194346 0.0208487 0.0208468 0.0194346 0.0192698 0.0208468 0.0207548 0.0208487 0.0208468 0.0206972 0.0206965 0.0208468 0.0207548 0.0206965 0.0206967 0.0192698 0.0190126 0.0207548 0.0206304 0.0190126 0.0187704 0.0206304 0.0205138 0.0207548 0.0206304 0.0206967 0.0206966 0.0206304 0.0205138 0.0206966 0.0206966 0 0 -0.000452563 -0.000908583 0 0 -0.000908583 -0.00134006 -0.000452563 -0.000908583 -0.000343525 -0.00068992 -0.000908583 -0.00134006 -0.00068992 -0.00101699 0 0 -0.00134006 -0.00156018 0 0 -0.00156018 -0.00151699 -0.00134006 -0.00156018 -0.00101699 -0.00118392 -0.00156018 -0.00151699 -0.00118392 -0.00115186 -0.000343525 -0.00068992 -0.000369794 -0.00074254 -0.00068992 -0.00101699 -0.00074254 -0.00109487 -0.000369794 -0.00074254 -0.000363478 -0.000729891 -0.00074254 -0.00109487 -0.000729891 -0.00107611 -0.00101699 -0.00118392 -0.00109487 -0.00127466 -0.00118392 -0.00115186 -0.00127466 -0.00123974 -0.00109487 -0.00127466 -0.00107611 -0.00125279 -0.00127466 -0.00123974 -0.00125279 -0.0012186 0 0 -0.00151699 -0.00141752 0 0 -0.00141752 -0.00132809 -0.00151699 -0.00141752 -0.00115186 -0.00107634 -0.00141752 -0.00132809 -0.00107634 -0.00100825 0 0 -0.00132809 -0.00122665 0 0 -0.00122665 -0.00111493 -0.00132809 -0.00122665 -0.00100825 -0.000931191 -0.00122665 -0.00111493 -0.000931191 -0.000846273 -0.00115186 -0.00107634 -0.00123974 -0.00115846 -0.00107634 -0.00100825 -0.00115846 -0.00108528 -0.00123974 -0.00115846 -0.0012186 -0.0011387 -0.00115846 -0.00108528 -0.0011387 -0.00106674 -0.00100825 -0.000931191 -0.00108528 -0.00100236 -0.000931191 -0.000846273 -0.00100236 -0.00091101 -0.00108528 -0.00100236 -0.00106674 -0.000985228 -0.00100236 -0.00091101 -0.000985228 -0.000895422 -0.000363478 -0.000729891 -0.000364937 -0.000732872 -0.000729891 -0.00107611 -0.000732872 -0.00108057 -0.000364937 -0.000732872 -0.000364846 -0.000732416 -0.000732872 -0.00108057 -0.000732416 -0.00107975 -0.00107611 -0.00125279 -0.00108057 -0.001258 -0.00125279 -0.0012186 -0.001258 -0.00122362 -0.00108057 -0.001258 -0.00107975 -0.00125701 -0.001258 -0.00122362 -0.00125701 -0.00122268 -0.000364846 -0.000732416 -0.000363797 -0.00073145 -0.000732416 -0.00107975 -0.00073145 -0.00107887 -0.000363797 -0.00073145 -0.000368478 -0.000736132 -0.00073145 -0.00107887 -0.000736132 -0.00108354 -0.00107975 -0.00125701 -0.00107887 -0.00125617 -0.00125701 -0.00122268 -0.00125617 -0.00122183 -0.00107887 -0.00125617 -0.00108354 -0.00126082 -0.00125617 -0.00122183 -0.00126082 -0.00122648 -0.0012186 -0.0011387 -0.00122362 -0.0011434 -0.0011387 -0.00106674 -0.0011434 -0.00107114 -0.00122362 -0.0011434 -0.00122268 -0.00114253 -0.0011434 -0.00107114 -0.00114253 -0.00107034 -0.00106674 -0.000985228 -0.00107114 -0.000989291 -0.000985228 -0.000895422 -0.000989291 -0.000899119 -0.00107114 -0.000989291 -0.00107034 -0.000988574 -0.000989291 -0.000899119 -0.000988574 -0.000898479 -0.00122268 -0.00114253 -0.00122183 -0.00114166 -0.00114253 -0.00107034 -0.00114166 -0.00106946 -0.00122183 -0.00114166 -0.00122648 -0.00114632 -0.00114166 -0.00106946 -0.00114632 -0.00107412 -0.00107034 -0.000988574 -0.00106946 -0.000987667 -0.000988574 -0.000898479 -0.000987667 -0.000897595 -0.00106946 -0.000987667 -0.00107412 -0.000992351 -0.000987667 -0.000897595 -0.000992351 -0.0009021 0 0 -0.00111493 -0.00099164 0 0 -0.00099164 -0.000857307 -0.00111493 -0.00099164 -0.000846273 -0.000752587 -0.00099164 -0.000857307 -0.000752587 -0.000650508 0 0 -0.000857307 -0.000714291 0 0 -0.000714291 -0.000567704 -0.000857307 -0.000714291 -0.000650508 -0.000541848 -0.000714291 -0.000567704 -0.000541848 -0.000430461 -0.000846273 -0.000752587 -0.00091101 -0.000810218 -0.000752587 -0.000650508 -0.000810218 -0.000700396 -0.00091101 -0.000810218 -0.000895422 -0.000796335 -0.000810218 -0.000700396 -0.000796335 -0.00068837 -0.000650508 -0.000541848 -0.000700396 -0.000583484 -0.000541848 -0.000430461 -0.000583484 -0.000463645 -0.000700396 -0.000583484 -0.00068837 -0.000573438 -0.000583484 -0.000463645 -0.000573438 -0.000455627 0 0 -0.000567704 -0.0004203 0 0 -0.0004203 -0.000274867 -0.000567704 -0.0004203 -0.000430461 -0.000318464 -0.0004203 -0.000274867 -0.000318464 -0.000207937 0 0 -0.000274867 -0.00012172 0 0 -0.00012172 0 -0.000274867 -0.00012172 -0.000207937 -9.14627e-05 -0.00012172 0 -9.14627e-05 0 -0.000430461 -0.000318464 -0.000463645 -0.000343144 -0.000318464 -0.000207937 -0.000343144 -0.000224239 -0.000463645 -0.000343144 -0.000455627 -0.000337166 -0.000343144 -0.000224239 -0.000337166 -0.000220271 -0.000207937 -9.14627e-05 -0.000224239 -9.89924e-05 -9.14627e-05 0 -9.89924e-05 0 -0.000224239 -9.89924e-05 -0.000220271 -9.71186e-05 -9.89924e-05 0 -9.71186e-05 0 -0.000895422 -0.000796335 -0.000899119 -0.000799627 -0.000796335 -0.00068837 -0.000799627 -0.000691225 -0.000899119 -0.000799627 -0.000898479 -0.000799063 -0.000799627 -0.000691225 -0.000799063 -0.000690732 -0.00068837 -0.000573438 -0.000691225 -0.000575824 -0.000573438 -0.000455627 -0.000575824 -0.000457534 -0.000691225 -0.000575824 -0.000690732 -0.000575413 -0.000575824 -0.000457534 -0.000575413 -0.000457206 -0.000898479 -0.000799063 -0.000897595 -0.000798251 -0.000799063 -0.000690732 -0.000798251 -0.000690041 -0.000897595 -0.000798251 -0.0009021 -0.000802365 -0.000798251 -0.000690041 -0.000802365 -0.000693553 -0.000690732 -0.000575413 -0.000690041 -0.000574832 -0.000575413 -0.000457206 -0.000574832 -0.000456737 -0.000690041 -0.000574832 -0.000693553 -0.000577778 -0.000574832 -0.000456737 -0.000577778 -0.000459108 -0.000455627 -0.000337166 -0.000457534 -0.000338591 -0.000337166 -0.000220271 -0.000338591 -0.000221221 -0.000457534 -0.000338591 -0.000457206 -0.000338348 -0.000338591 -0.000221221 -0.000338348 -0.000221059 -0.000220271 -9.71186e-05 -0.000221221 -9.75758e-05 -9.71186e-05 0 -9.75758e-05 0 -0.000221221 -9.75758e-05 -0.000221059 -9.75025e-05 -9.75758e-05 0 -9.75025e-05 0 -0.000457206 -0.000338348 -0.000456737 -0.000337989 -0.000338348 -0.000221059 -0.000337989 -0.000220814 -0.000456737 -0.000337989 -0.000459108 -0.00033979 -0.000337989 -0.000220814 -0.00033979 -0.000222034 -0.000221059 -9.75025e-05 -0.000220814 -9.73593e-05 -9.75025e-05 0 -9.73593e-05 0 -0.000220814 -9.73593e-05 -0.000222034 -9.80358e-05 -9.73593e-05 0 -9.80358e-05 0 -0.000368478 -0.000736132 -0.00034902 -0.000716587 -0.000736132 -0.00108354 -0.000716587 -0.00106397 -0.00034902 -0.000716587 -0.000429601 -0.000797546 -0.000716587 -0.00106397 -0.000797546 -0.00114505 -0.00108354 -0.00126082 -0.00106397 -0.00124128 -0.00126082 -0.00122648 -0.00124128 -0.00120694 -0.00106397 -0.00124128 -0.00114505 -0.00132226 -0.00124128 -0.00120694 -0.00132226 -0.0012879 -0.000429601 -0.000797546 -9.58968e-05 -0.000462277 -0.000797546 -0.00114505 -0.000462277 -0.000809295 -9.58968e-05 -0.000462277 -0.00147813 -0.00185096 -0.000462277 -0.000809295 -0.00185096 -0.00220001 -0.00114505 -0.00132226 -0.000809295 -0.000986889 -0.00132226 -0.0012879 -0.000986889 -0.000952605 -0.000809295 -0.000986889 -0.00220001 -0.00237608 -0.000986889 -0.000952605 -0.00237608 -0.00234148 -0.00122648 -0.00114632 -0.00120694 -0.00112678 -0.00114632 -0.00107412 -0.00112678 -0.00105461 -0.00120694 -0.00112678 -0.0012879 -0.00120773 -0.00112678 -0.00105461 -0.00120773 -0.00113545 -0.00107412 -0.000992351 -0.00105461 -0.000972747 -0.000992351 -0.0009021 -0.000972747 -0.000883259 -0.00105461 -0.000972747 -0.00113545 -0.00105392 -0.000972747 -0.000883259 -0.00105392 -0.000961271 -0.0012879 -0.00120773 -0.000952605 -0.000872517 -0.00120773 -0.00113545 -0.000872517 -0.000800572 -0.000952605 -0.000872517 -0.00234148 -0.00226093 -0.000872517 -0.000800572 -0.00226093 -0.00218797 -0.00113545 -0.00105392 -0.000800572 -0.00071793 -0.00105392 -0.000961271 -0.00071793 -0.000638388 -0.000800572 -0.00071793 -0.00218797 -0.00210889 -0.00071793 -0.000638388 -0.00210889 -0.001975 -0.00147813 -0.00185096 0.00424838 0.00390216 -0.00185096 -0.00220001 0.00390216 0.00356157 0.00424838 0.00390216 0.0187704 0.0185282 0.00390216 0.00356157 0.0185282 0.018271 -0.00220001 -0.00237608 0.00356157 0.00337947 -0.00237608 -0.00234148 0.00337947 0.00341268 0.00356157 0.00337947 0.018271 0.0181062 0.00337947 0.00341268 0.0181062 0.0181201 0.0187704 0.0185282 0.0205138 0.0203972 0.0185282 0.018271 0.0203972 0.0202729 0.0205138 0.0203972 0.0206966 0.0206966 0.0203972 0.0202729 0.0206966 0.0206967 0.018271 0.0181062 0.0202729 0.0201807 0.0181062 0.0181201 0.0201807 0.0201798 0.0202729 0.0201807 0.0206967 0.0206965 0.0201807 0.0201798 0.0206965 0.0206972 -0.00234148 -0.00226093 0.00341268 0.00349102 -0.00226093 -0.00218797 0.00349102 0.00356103 0.00341268 0.00349102 0.0181201 0.0181836 0.00349102 0.00356103 0.0181836 0.0182008 -0.00218797 -0.00210889 0.00356103 0.00365071 -0.00210889 -0.001975 0.00365071 0.0035591 0.00356103 0.00365071 0.0182008 0.0178023 0.00365071 0.0035591 0.0178023 0.0169206 0.0181201 0.0181836 0.0201798 0.0202123 0.0181836 0.0182008 0.0202123 0.0200003 0.0201798 0.0202123 0.0206972 0.020694