# vtk DataFile Version 3.0
#This file was generated by the deal.II library on 2020/3/19 at 1:35:12
ASCII
DATASET UNSTRUCTURED_GRID

POINTS 4096 double
-1 -1 0
-0.9375 -1 0
-1 -0.9375 0
-0.9375 -0.9375 0
-0.9375 -1 0
-0.875 -1 0
-0.9375 -0.9375 0
-0.875 -0.9375 0
-1 -0.9375 0
-0.9375 -0.9375 0
-1 -0.875 0
-0.9375 -0.875 0
-0.9375 -0.9375 0
-0.875 -0.9375 0
-0.9375 -0.875 0
-0.875 -0.875 0
-0.875 -1 0
-0.8125 -1 0
-0.875 -0.9375 0
-0.8125 -0.9375 0
-0.8125 -1 0
-0.75 -1 0
-0.8125 -0.9375 0
-0.75 -0.9375 0
-0.875 -0.9375 0
-0.8125 -0.9375 0
-0.875 -0.875 0
-0.8125 -0.875 0
-0.8125 -0.9375 0
-0.75 -0.9375 0
-0.8125 -0.875 0
-0.75 -0.875 0
-1 -0.875 0
-0.9375 -0.875 0
-1 -0.8125 0
-0.9375 -0.8125 0
-0.9375 -0.875 0
-0.875 -0.875 0
-0.9375 -0.8125 0
-0.875 -0.8125 0
-1 -0.8125 0
-0.9375 -0.8125 0
-1 -0.75 0
-0.9375 -0.75 0
-0.9375 -0.8125 0
-0.875 -0.8125 0
-0.9375 -0.75 0
-0.875 -0.75 0
-0.875 -0.875 0
-0.8125 -0.875 0
-0.875 -0.8125 0
-0.8125 -0.8125 0
-0.8125 -0.875 0
-0.75 -0.875 0
-0.8125 -0.8125 0
-0.75 -0.8125 0
-0.875 -0.8125 0
-0.8125 -0.8125 0
-0.875 -0.75 0
-0.8125 -0.75 0
-0.8125 -0.8125 0
-0.75 -0.8125 0
-0.8125 -0.75 0
-0.75 -0.75 0
-0.75 -1 0
-0.6875 -1 0
-0.75 -0.9375 0
-0.6875 -0.9375 0
-0.6875 -1 0
-0.625 -1 0
-0.6875 -0.9375 0
-0.625 -0.9375 0
-0.75 -0.9375 0
-0.6875 -0.9375 0
-0.75 -0.875 0
-0.6875 -0.875 0
-0.6875 -0.9375 0
-0.625 -0.9375 0
-0.6875 -0.875 0
-0.625 -0.875 0
-0.625 -1 0
-0.5625 -1 0
-0.625 -0.9375 0
-0.5625 -0.9375 0
-0.5625 -1 0
-0.5 -1 0
-0.5625 -0.9375 0
-0.5 -0.9375 0
-0.625 -0.9375 0
-0.5625 -0.9375 0
-0.625 -0.875 0
-0.5625 -0.875 0
-0.5625 -0.9375 0
-0.5 -0.9375 0
-0.5625 -0.875 0
-0.5 -0.875 0
-0.75 -0.875 0
-0.6875 -0.875 0
-0.75 -0.8125 0
-0.6875 -0.8125 0
-0.6875 -0.875 0
-0.625 -0.875 0
-0.6875 -0.8125 0
-0.625 -0.8125 0
-0.75 -0.8125 0
-0.6875 -0.8125 0
-0.75 -0.75 0
-0.6875 -0.75 0
-0.6875 -0.8125 0
-0.625 -0.8125 0
-0.6875 -0.75 0
-0.625 -0.75 0
-0.625 -0.875 0
-0.5625 -0.875 0
-0.625 -0.8125 0
-0.5625 -0.8125 0
-0.5625 -0.875 0
-0.5 -0.875 0
-0.5625 -0.8125 0
-0.5 -0.8125 0
-0.625 -0.8125 0
-0.5625 -0.8125 0
-0.625 -0.75 0
-0.5625 -0.75 0
-0.5625 -0.8125 0
-0.5 -0.8125 0
-0.5625 -0.75 0
-0.5 -0.75 0
-1 -0.75 0
-0.9375 -0.75 0
-1 -0.6875 0
-0.9375 -0.6875 0
-0.9375 -0.75 0
-0.875 -0.75 0
-0.9375 -0.6875 0
-0.875 -0.6875 0
-1 -0.6875 0
-0.9375 -0.6875 0
-1 -0.625 0
-0.9375 -0.625 0
-0.9375 -0.6875 0
-0.875 -0.6875 0
-0.9375 -0.625 0
-0.875 -0.625 0
-0.875 -0.75 0
-0.8125 -0.75 0
-0.875 -0.6875 0
-0.8125 -0.6875 0
-0.8125 -0.75 0
-0.75 -0.75 0
-0.8125 -0.6875 0
-0.75 -0.6875 0
-0.875 -0.6875 0
-0.8125 -0.6875 0
-0.875 -0.625 0
-0.8125 -0.625 0
-0.8125 -0.6875 0
-0.75 -0.6875 0
-0.8125 -0.625 0
-0.75 -0.625 0
-1 -0.625 0
-0.9375 -0.625 0
-1 -0.5625 0
-0.9375 -0.5625 0
-0.9375 -0.625 0
-0.875 -0.625 0
-0.9375 -0.5625 0
-0.875 -0.5625 0
-1 -0.5625 0
-0.9375 -0.5625 0
-1 -0.5 0
-0.9375 -0.5 0
-0.9375 -0.5625 0
-0.875 -0.5625 0
-0.9375 -0.5 0
-0.875 -0.5 0
-0.875 -0.625 0
-0.8125 -0.625 0
-0.875 -0.5625 0
-0.8125 -0.5625 0
-0.8125 -0.625 0
-0.75 -0.625 0
-0.8125 -0.5625 0
-0.75 -0.5625 0
-0.875 -0.5625 0
-0.8125 -0.5625 0
-0.875 -0.5 0
-0.8125 -0.5 0
-0.8125 -0.5625 0
-0.75 -0.5625 0
-0.8125 -0.5 0
-0.75 -0.5 0
-0.75 -0.75 0
-0.6875 -0.75 0
-0.75 -0.6875 0
-0.6875 -0.6875 0
-0.6875 -0.75 0
-0.625 -0.75 0
-0.6875 -0.6875 0
-0.625 -0.6875 0
-0.75 -0.6875 0
-0.6875 -0.6875 0
-0.75 -0.625 0
-0.6875 -0.625 0
-0.6875 -0.6875 0
-0.625 -0.6875 0
-0.6875 -0.625 0
-0.625 -0.625 0
-0.625 -0.75 0
-0.5625 -0.75 0
-0.625 -0.6875 0
-0.5625 -0.6875 0
-0.5625 -0.75 0
-0.5 -0.75 0
-0.5625 -0.6875 0
-0.5 -0.6875 0
-0.625 -0.6875 0
-0.5625 -0.6875 0
-0.625 -0.625 0
-0.5625 -0.625 0
-0.5625 -0.6875 0
-0.5 -0.6875 0
-0.5625 -0.625 0
-0.5 -0.625 0
-0.75 -0.625 0
-0.6875 -0.625 0
-0.75 -0.5625 0
-0.6875 -0.5625 0
-0.6875 -0.625 0
-0.625 -0.625 0
-0.6875 -0.5625 0
-0.625 -0.5625 0
-0.75 -0.5625 0
-0.6875 -0.5625 0
-0.75 -0.5 0
-0.6875 -0.5 0
-0.6875 -0.5625 0
-0.625 -0.5625 0
-0.6875 -0.5 0
-0.625 -0.5 0
-0.625 -0.625 0
-0.5625 -0.625 0
-0.625 -0.5625 0
-0.5625 -0.5625 0
-0.5625 -0.625 0
-0.5 -0.625 0
-0.5625 -0.5625 0
-0.5 -0.5625 0
-0.625 -0.5625 0
-0.5625 -0.5625 0
-0.625 -0.5 0
-0.5625 -0.5 0
-0.5625 -0.5625 0
-0.5 -0.5625 0
-0.5625 -0.5 0
-0.5 -0.5 0
-0.5 -1 0
-0.4375 -1 0
-0.5 -0.9375 0
-0.4375 -0.9375 0
-0.4375 -1 0
-0.375 -1 0
-0.4375 -0.9375 0
-0.375 -0.9375 0
-0.5 -0.9375 0
-0.4375 -0.9375 0
-0.5 -0.875 0
-0.4375 -0.875 0
-0.4375 -0.9375 0
-0.375 -0.9375 0
-0.4375 -0.875 0
-0.375 -0.875 0
-0.375 -1 0
-0.3125 -1 0
-0.375 -0.9375 0
-0.3125 -0.9375 0
-0.3125 -1 0
-0.25 -1 0
-0.3125 -0.9375 0
-0.25 -0.9375 0
-0.375 -0.9375 0
-0.3125 -0.9375 0
-0.375 -0.875 0
-0.3125 -0.875 0
-0.3125 -0.9375 0
-0.25 -0.9375 0
-0.3125 -0.875 0
-0.25 -0.875 0
-0.5 -0.875 0
-0.4375 -0.875 0
-0.5 -0.8125 0
-0.4375 -0.8125 0
-0.4375 -0.875 0
-0.375 -0.875 0
-0.4375 -0.8125 0
-0.375 -0.8125 0
-0.5 -0.8125 0
-0.4375 -0.8125 0
-0.5 -0.75 0
-0.4375 -0.75 0
-0.4375 -0.8125 0
-0.375 -0.8125 0
-0.4375 -0.75 0
-0.375 -0.75 0
-0.375 -0.875 0
-0.3125 -0.875 0
-0.375 -0.8125 0
-0.3125 -0.8125 0
-0.3125 -0.875 0
-0.25 -0.875 0
-0.3125 -0.8125 0
-0.25 -0.8125 0
-0.375 -0.8125 0
-0.3125 -0.8125 0
-0.375 -0.75 0
-0.3125 -0.75 0
-0.3125 -0.8125 0
-0.25 -0.8125 0
-0.3125 -0.75 0
-0.25 -0.75 0
-0.25 -1 0
-0.1875 -1 0
-0.25 -0.9375 0
-0.1875 -0.9375 0
-0.1875 -1 0
-0.125 -1 0
-0.1875 -0.9375 0
-0.125 -0.9375 0
-0.25 -0.9375 0
-0.1875 -0.9375 0
-0.25 -0.875 0
-0.1875 -0.875 0
-0.1875 -0.9375 0
-0.125 -0.9375 0
-0.1875 -0.875 0
-0.125 -0.875 0
-0.125 -1 0
-0.0625 -1 0
-0.125 -0.9375 0
-0.0625 -0.9375 0
-0.0625 -1 0
0 -1 0
-0.0625 -0.9375 0
0 -0.9375 0
-0.125 -0.9375 0
-0.0625 -0.9375 0
-0.125 -0.875 0
-0.0625 -0.875 0
-0.0625 -0.9375 0
0 -0.9375 0
-0.0625 -0.875 0
0 -0.875 0
-0.25 -0.875 0
-0.1875 -0.875 0
-0.25 -0.8125 0
-0.1875 -0.8125 0
-0.1875 -0.875 0
-0.125 -0.875 0
-0.1875 -0.8125 0
-0.125 -0.8125 0
-0.25 -0.8125 0
-0.1875 -0.8125 0
-0.25 -0.75 0
-0.1875 -0.75 0
-0.1875 -0.8125 0
-0.125 -0.8125 0
-0.1875 -0.75 0
-0.125 -0.75 0
-0.125 -0.875 0
-0.0625 -0.875 0
-0.125 -0.8125 0
-0.0625 -0.8125 0
-0.0625 -0.875 0
0 -0.875 0
-0.0625 -0.8125 0
0 -0.8125 0
-0.125 -0.8125 0
-0.0625 -0.8125 0
-0.125 -0.75 0
-0.0625 -0.75 0
-0.0625 -0.8125 0
0 -0.8125 0
-0.0625 -0.75 0
0 -0.75 0
-0.5 -0.75 0
-0.4375 -0.75 0
-0.5 -0.6875 0
-0.4375 -0.6875 0
-0.4375 -0.75 0
-0.375 -0.75 0
-0.4375 -0.6875 0
-0.375 -0.6875 0
-0.5 -0.6875 0
-0.4375 -0.6875 0
-0.5 -0.625 0
-0.4375 -0.625 0
-0.4375 -0.6875 0
-0.375 -0.6875 0
-0.4375 -0.625 0
-0.375 -0.625 0
-0.375 -0.75 0
-0.3125 -0.75 0
-0.375 -0.6875 0
-0.3125 -0.6875 0
-0.3125 -0.75 0
-0.25 -0.75 0
-0.3125 -0.6875 0
-0.25 -0.6875 0
-0.375 -0.6875 0
-0.3125 -0.6875 0
-0.375 -0.625 0
-0.3125 -0.625 0
-0.3125 -0.6875 0
-0.25 -0.6875 0
-0.3125 -0.625 0
-0.25 -0.625 0
-0.5 -0.625 0
-0.4375 -0.625 0
-0.5 -0.5625 0
-0.4375 -0.5625 0
-0.4375 -0.625 0
-0.375 -0.625 0
-0.4375 -0.5625 0
-0.375 -0.5625 0
-0.5 -0.5625 0
-0.4375 -0.5625 0
-0.5 -0.5 0
-0.4375 -0.5 0
-0.4375 -0.5625 0
-0.375 -0.5625 0
-0.4375 -0.5 0
-0.375 -0.5 0
-0.375 -0.625 0
-0.3125 -0.625 0
-0.375 -0.5625 0
-0.3125 -0.5625 0
-0.3125 -0.625 0
-0.25 -0.625 0
-0.3125 -0.5625 0
-0.25 -0.5625 0
-0.375 -0.5625 0
-0.3125 -0.5625 0
-0.375 -0.5 0
-0.3125 -0.5 0
-0.3125 -0.5625 0
-0.25 -0.5625 0
-0.3125 -0.5 0
-0.25 -0.5 0
-0.25 -0.75 0
-0.1875 -0.75 0
-0.25 -0.6875 0
-0.1875 -0.6875 0
-0.1875 -0.75 0
-0.125 -0.75 0
-0.1875 -0.6875 0
-0.125 -0.6875 0
-0.25 -0.6875 0
-0.1875 -0.6875 0
-0.25 -0.625 0
-0.1875 -0.625 0
-0.1875 -0.6875 0
-0.125 -0.6875 0
-0.1875 -0.625 0
-0.125 -0.625 0
-0.125 -0.75 0
-0.0625 -0.75 0
-0.125 -0.6875 0
-0.0625 -0.6875 0
-0.0625 -0.75 0
0 -0.75 0
-0.0625 -0.6875 0
0 -0.6875 0
-0.125 -0.6875 0
-0.0625 -0.6875 0
-0.125 -0.625 0
-0.0625 -0.625 0
-0.0625 -0.6875 0
0 -0.6875 0
-0.0625 -0.625 0
0 -0.625 0
-0.25 -0.625 0
-0.1875 -0.625 0
-0.25 -0.5625 0
-0.1875 -0.5625 0
-0.1875 -0.625 0
-0.125 -0.625 0
-0.1875 -0.5625 0
-0.125 -0.5625 0
-0.25 -0.5625 0
-0.1875 -0.5625 0
-0.25 -0.5 0
-0.1875 -0.5 0
-0.1875 -0.5625 0
-0.125 -0.5625 0
-0.1875 -0.5 0
-0.125 -0.5 0
-0.125 -0.625 0
-0.0625 -0.625 0
-0.125 -0.5625 0
-0.0625 -0.5625 0
-0.0625 -0.625 0
0 -0.625 0
-0.0625 -0.5625 0
0 -0.5625 0
-0.125 -0.5625 0
-0.0625 -0.5625 0
-0.125 -0.5 0
-0.0625 -0.5 0
-0.0625 -0.5625 0
0 -0.5625 0
-0.0625 -0.5 0
0 -0.5 0
-1 -0.5 0
-0.9375 -0.5 0
-1 -0.4375 0
-0.9375 -0.4375 0
-0.9375 -0.5 0
-0.875 -0.5 0
-0.9375 -0.4375 0
-0.875 -0.4375 0
-1 -0.4375 0
-0.9375 -0.4375 0
-1 -0.375 0
-0.9375 -0.375 0
-0.9375 -0.4375 0
-0.875 -0.4375 0
-0.9375 -0.375 0
-0.875 -0.375 0
-0.875 -0.5 0
-0.8125 -0.5 0
-0.875 -0.4375 0
-0.8125 -0.4375 0
-0.8125 -0.5 0
-0.75 -0.5 0
-0.8125 -0.4375 0
-0.75 -0.4375 0
-0.875 -0.4375 0
-0.8125 -0.4375 0
-0.875 -0.375 0
-0.8125 -0.375 0
-0.8125 -0.4375 0
-0.75 -0.4375 0
-0.8125 -0.375 0
-0.75 -0.375 0
-1 -0.375 0
-0.9375 -0.375 0
-1 -0.3125 0
-0.9375 -0.3125 0
-0.9375 -0.375 0
-0.875 -0.375 0
-0.9375 -0.3125 0
-0.875 -0.3125 0
-1 -0.3125 0
-0.9375 -0.3125 0
-1 -0.25 0
-0.9375 -0.25 0
-0.9375 -0.3125 0
-0.875 -0.3125 0
-0.9375 -0.25 0
-0.875 -0.25 0
-0.875 -0.375 0
-0.8125 -0.375 0
-0.875 -0.3125 0
-0.8125 -0.3125 0
-0.8125 -0.375 0
-0.75 -0.375 0
-0.8125 -0.3125 0
-0.75 -0.3125 0
-0.875 -0.3125 0
-0.8125 -0.3125 0
-0.875 -0.25 0
-0.8125 -0.25 0
-0.8125 -0.3125 0
-0.75 -0.3125 0
-0.8125 -0.25 0
-0.75 -0.25 0
-0.75 -0.5 0
-0.6875 -0.5 0
-0.75 -0.4375 0
-0.6875 -0.4375 0
-0.6875 -0.5 0
-0.625 -0.5 0
-0.6875 -0.4375 0
-0.625 -0.4375 0
-0.75 -0.4375 0
-0.6875 -0.4375 0
-0.75 -0.375 0
-0.6875 -0.375 0
-0.6875 -0.4375 0
-0.625 -0.4375 0
-0.6875 -0.375 0
-0.625 -0.375 0
-0.625 -0.5 0
-0.5625 -0.5 0
-0.625 -0.4375 0
-0.5625 -0.4375 0
-0.5625 -0.5 0
-0.5 -0.5 0
-0.5625 -0.4375 0
-0.5 -0.4375 0
-0.625 -0.4375 0
-0.5625 -0.4375 0
-0.625 -0.375 0
-0.5625 -0.375 0
-0.5625 -0.4375 0
-0.5 -0.4375 0
-0.5625 -0.375 0
-0.5 -0.375 0
-0.75 -0.375 0
-0.6875 -0.375 0
-0.75 -0.3125 0
-0.6875 -0.3125 0
-0.6875 -0.375 0
-0.625 -0.375 0
-0.6875 -0.3125 0
[...]
POINT_DATA 4096
SCALARS x_displacement double 1
LOOKUP_TABLE default
0 0 0 3.23449e-05 0 0 3.23449e-05 4.87893e-05 0 3.23449e-05 0 2.41547e-05 3.23449e-05 4.87893e-05 2.41547e-05 3.68676e-05 0 0 4.87893e-05 6.91448e-05 0 0 6.91448e-05 8.84868e-05 4.87893e-05 6.91448e-05 3.68676e-05 5.22894e-05 6.91448e-05 8.84868e-05 5.22894e-05 6.70321e-05 0 2.41547e-05 0 2.62322e-05 2.41547e-05 3.68676e-05 2.62322e-05 3.97826e-05 0 2.62322e-05 0 2.57029e-05 2.62322e-05 3.97826e-05 2.57029e-05 3.9067e-05 3.68676e-05 5.22894e-05 3.97826e-05 5.64031e-05 5.22894e-05 6.70321e-05 5.64031e-05 7.2238e-05 3.97826e-05 5.64031e-05 3.9067e-05 5.53945e-05 5.64031e-05 7.2238e-05 5.53945e-05 7.09694e-05 0 0 8.84868e-05 0.000108299 0 0 0.000108299 0.000130514 8.84868e-05 0.000108299 6.70321e-05 8.21092e-05 0.000108299 0.000130514 8.21092e-05 9.90238e-05 0 0 0.000130514 0.000158497 0 0 0.000158497 0.000193912 0.000130514 0.000158497 9.90238e-05 0.000120312 0.000158497 0.000193912 0.000120312 0.000147239 6.70321e-05 8.21092e-05 7.2238e-05 8.84472e-05 8.21092e-05 9.90238e-05 8.84472e-05 0.000106626 7.2238e-05 8.84472e-05 7.09694e-05 8.69069e-05 8.84472e-05 0.000106626 8.69069e-05 0.000104783 9.90238e-05 0.000120312 0.000106626 0.000129516 0.000120312 0.000147239 0.000129516 0.000158477 0.000106626 0.000129516 0.000104783 0.000127289 0.000129516 0.000158477 0.000127289 0.000155762 0 2.57029e-05 0 2.58444e-05 2.57029e-05 3.9067e-05 2.58444e-05 3.92534e-05 0 2.58444e-05 0 2.57813e-05 2.58444e-05 3.92534e-05 2.57813e-05 3.91616e-05 3.9067e-05 5.53945e-05 3.92534e-05 5.56577e-05 5.53945e-05 7.09694e-05 5.56577e-05 7.12991e-05 3.92534e-05 5.56577e-05 3.91616e-05 5.55255e-05 5.56577e-05 7.12991e-05 5.55255e-05 7.11305e-05 0 2.57813e-05 0 2.59042e-05 2.57813e-05 3.91616e-05 2.59042e-05 3.93721e-05 0 2.59042e-05 0 2.54489e-05 2.59042e-05 3.93721e-05 2.54489e-05 3.85522e-05 3.91616e-05 5.55255e-05 3.93721e-05 5.58346e-05 5.55255e-05 7.11305e-05 5.58346e-05 7.15345e-05 3.93721e-05 5.58346e-05 3.85522e-05 5.46241e-05 5.58346e-05 7.15345e-05 5.46241e-05 6.99414e-05 7.09694e-05 8.69069e-05 7.12991e-05 8.73066e-05 8.69069e-05 0.000104783 8.73066e-05 0.00010526 7.12991e-05 8.73066e-05 7.11305e-05 8.71e-05 8.73066e-05 0.00010526 8.71e-05 0.000105015 0.000104783 0.000127289 0.00010526 0.000127863 0.000127289 0.000155762 0.000127863 0.000156456 0.00010526 0.000127863 0.000105015 0.000127572 0.000127863 0.000156456 0.000127572 0.000156122 7.11305e-05 8.71e-05 7.15345e-05 8.76007e-05 8.71e-05 0.000105015 8.76007e-05 0.00010561 7.15345e-05 8.76007e-05 6.99414e-05 8.56208e-05 8.76007e-05 0.00010561 8.56208e-05 0.000103251 0.000105015 0.000127572 0.00010561 0.00012827 0.000127572 0.000156122 0.00012827 0.00015689 0.00010561 0.00012827 0.000103251 0.000125506 0.00012827 0.00015689 0.000125506 0.000153862 0 0 0.000193912 0.000236767 0 0 0.000236767 0.000287576 0.000193912 0.000236767 0.000147239 0.000179829 0.000236767 0.000287576 0.000179829 0.000218422 0 0 0.000287576 0.000341901 0 0 0.000341901 0.000407833 0.000287576 0.000341901 0.000218422 0.000259767 0.000341901 0.000407833 0.000259767 0.000309813 0.000147239 0.000179829 0.000158477 0.000193525 0.000179829 0.000218422 0.000193525 0.000235056 0.000158477 0.000193525 0.000155762 0.000190222 0.000193525 0.000235056 0.000190222 0.000231046 0.000218422 0.000259767 0.000235056 0.000279501 0.000259767 0.000309813 0.000279501 0.000333372 0.000235056 0.000279501 0.000231046 0.00027475 0.000279501 0.000333372 0.00027475 0.000327701 0 0 0.000407833 0.000436719 0 0 0.000436719 0.000289948 0.000407833 0.000436719 0.000309813 0.000331262 0.000436719 0.000289948 0.000331262 0.000219954 0 0 0.000289948 2.30579e-06 0 0 2.30579e-06 -0.000301709 0.000289948 2.30579e-06 0.000219954 1.91481e-06 2.30579e-06 -0.000301709 1.91481e-06 -0.000229017 0.000309813 0.000331262 0.000333372 0.000356732 0.000331262 0.000219954 0.000356732 0.000236853 0.000333372 0.000356732 0.000327701 0.000350571 0.000356732 0.000236853 0.000350571 0.000232765 0.000219954 1.91481e-06 0.000236853 1.96923e-06 1.91481e-06 -0.000229017 1.96923e-06 -0.00024653 0.000236853 1.96923e-06 0.000232765 1.95759e-06 1.96923e-06 -0.00024653 1.95759e-06 -0.000242319 0.000155762 0.000190222 0.000156456 0.000191058 0.000190222 0.000231046 0.000191058 0.000232052 0.000156456 0.000191058 0.000156122 0.000190683 0.000191058 0.000232052 0.000190683 0.000231638 0.000231046 0.00027475 0.000232052 0.000275934 0.00027475 0.000327701 0.000275934 0.000329106 0.000232052 0.000275934 0.000231638 0.000275477 0.000275934 0.000329106 0.000275477 0.000328596 0.000156122 0.000190683 0.00015689 0.000191489 0.000190683 0.000231638 0.000191489 0.000232447 0.00015689 0.000191489 0.000153862 0.000188338 0.000191489 0.000232447 0.000188338 0.000229315 0.000231638 0.000275477 0.000232447 0.000276298 0.000275477 0.000328596 0.000276298 0.000329429 0.000232447 0.000276298 0.000229315 0.000273159 0.000276298 0.000329429 0.000273159 0.000326291 0.000327701 0.000350571 0.000329106 0.000352101 0.000350571 0.000232765 0.000352101 0.000233793 0.000329106 0.000352101 0.000328596 0.000351559 0.000352101 0.000233793 0.000351559 0.000233373 0.000232765 1.95759e-06 0.000233793 1.99938e-06 1.95759e-06 -0.000242319 1.99938e-06 -0.000243292 0.000233793 1.99938e-06 0.000233373 1.81766e-06 1.99938e-06 -0.000243292 1.81766e-06 -0.00024323 0.000328596 0.000351559 0.000329429 0.0003524 0.000351559 0.000233373 0.0003524 0.000234183 0.000329429 0.0003524 0.000326291 0.000349259 0.0003524 0.000234183 0.000349259 0.000231054 0.000233373 1.81766e-06 0.000234183 2.57149e-06 1.81766e-06 -0.00024323 2.57149e-06 -0.000242531 0.000234183 2.57149e-06 0.000231054 -5.48148e-07 2.57149e-06 -0.000242531 -5.48148e-07 -0.000245652 0 2.54489e-05 0 2.72496e-05 2.54489e-05 3.85522e-05 2.72496e-05 4.18952e-05 0 2.72496e-05 0 2.00871e-05 2.72496e-05 4.18952e-05 2.00871e-05 2.82215e-05 3.85522e-05 5.46241e-05 4.18952e-05 5.9579e-05 5.46241e-05 6.99414e-05 5.9579e-05 7.64878e-05 4.18952e-05 5.9579e-05 2.82215e-05 3.92297e-05 5.9579e-05 7.64878e-05 3.92297e-05 4.95093e-05 0 2.00871e-05 0 4.86255e-05 2.00871e-05 2.82215e-05 4.86255e-05 8.41838e-05 0 4.86255e-05 0 -6.52457e-05 4.86255e-05 8.41838e-05 -6.52457e-05 -0.000144949 2.82215e-05 3.92297e-05 8.41838e-05 0.000122866 3.92297e-05 4.95093e-05 0.000122866 0.000160751 8.41838e-05 0.000122866 -0.000144949 -0.000221084 0.000122866 0.000160751 -0.000221084 -0.000298116 6.99414e-05 8.56208e-05 7.64878e-05 9.37704e-05 8.56208e-05 0.000103251 9.37704e-05 0.000112981 7.64878e-05 9.37704e-05 4.95093e-05 6.01322e-05 9.37704e-05 0.000112981 6.01322e-05 7.27496e-05 0.000103251 0.000125506 0.000112981 0.000136903 0.000125506 0.000153862 0.000136903 0.000166351 0.000112981 0.000136903 7.27496e-05 8.9786e-05 0.000136903 0.000166351 8.9786e-05 0.000114682 4.95093e-05 6.01322e-05 0.000160751 0.000199049 6.01322e-05 7.27496e-05 0.000199049 0.000239157 0.000160751 0.000199049 -0.000298116 -0.000374845 0.000199049 0.000239157 -0.000374845 -0.000449331 7.27496e-05 8.9786e-05 0.000239157 0.000284652 8.9786e-05 0.000114682 0.000284652 0.000328522 0.000239157 0.000284652 -0.000449331 -0.000521496 0.000284652 0.000328522 -0.000521496 -0.000556675 0 -6.52457e-05 0 0.000389741 -6.52457e-05 -0.000144949 0.000389741 0.00079359 0 0.000389741 0 0.00155518 0.000389741 0.00079359 0.00155518 0.00317206 -0.000144949 -0.000221084 0.00079359 0.00119413 -0.000221084 -0.000298116 0.00119413 0.00159537 0.00079359 0.00119413 0.00317206 0.00477399 0.00119413 0.00159537 0.00477399 0.0063795 0 0.00155518 0 0.00167038 0.00155518 0.00317206 0.00167038 0.00341993 0 0.00167038 0 0.00166933 0.00167038 0.00341993 0.00166933 0.00341507 0.00317206 0.00477399 0.00341993 0.00515029 0.00477399 0.0063795 0.00515029 0.00688565 0.00341993 0.00515029 0.00341507 0.00514233 0.00515029 0.00688565 0.00514233 0.00687461 -0.000298116 -0.000374845 0.00159537 0.00199682 -0.000374845 -0.000449331 0.00199682 0.00239987 0.00159537 0.00199682 0.0063795 0.00798428 0.00199682 0.00239987 0.00798428 0.00956642 -0.000449331 -0.000521496 0.00239987 0.00281431 -0.000521496 -0.000556675 0.00281431 0.00310833 0.00239987 0.00281431 0.00956642 0.0108694 0.00281431 0.00310833 0.0108694 0.0118508 0.0063795 0.00798428 0.00688565 0.00861829 0.00798428 0.00956642 0.00861829 0.0101939 0.00688565 0.00861829 0.00687461 0.00860328 0.00861829 0.0101939 0.00860328 0.0101937 0.00956642 0.0108694 0.0101939 0.0114879 0.0108694 0.0118508 0.0114879 0.012503 0.0101939 0.0114879 0.0101937 0.0114961 0.0114879 0.012503 0.0114961 0.0125069 0.000153862 0.000188338 0.000166351 0.000201328 0.000188338 0.000229315 0.000201328 0.00024223 0.000166351 0.000201328 0.000114682 0.00014759 0.000201328 0.00024223 0.00014759 0.000188758 0.000229315 0.000273159 0.00024223 0.000286086 0.000273159 0.000326291 0.000286086 0.000339207 0.00024223 0.000286086 0.000188758 0.000232585 0.000286086 0.000339207 0.000232585 0.000285747 0.000114682 0.00014759 0.000328522 0.000369995 0.00014759 0.000188758 0.000369995 0.000410242 0.000328522 0.000369995 -0.000556675 -0.000550702 0.000369995 0.000410242 -0.000550702 -0.000507338 0.000188758 0.000232585 0.000410242 0.000454122 0.000232585 0.000285747 0.000454122 0.000507133 0.000410242 0.000454122 -0.000507338 -0.000463433 0.000454122 0.000507133 -0.000463433 -0.000409877 0.000326291 0.000349259 0.000339207 0.000362176 0.000349259 0.000231054 0.000362176 0.000243953 0.000339207 0.000362176 0.000285747 0.000308718 0.000362176 0.000243953 0.000308718 0.000190562 0.000231054 -5.48148e-07 0.000243953 1.23656e-05 -5.48148e-07 -0.000245652 1.23656e-05 -0.00023268 0.000243953 1.23656e-05 0.000190562 -4.11027e-05 1.23656e-05 -0.00023268 -4.11027e-05 -0.0002864 0.000285747 0.000308718 0.000507133 0.000530082 0.000308718 0.000190562 0.000530082 0.000411663 0.000507133 0.000530082 -0.000409877 -0.000386783 0.000530082 0.000411663 -0.000386783 -0.000504171 0.000190562 -4.11027e-05 0.000411663 0.000180324 -4.11027e-05 -0.0002864 0.000180324 -6.39312e-05 0.000411663 0.000180324 -0.000504171 -0.000736865 0.000180324 -6.39312e-05 -0.000736865 -0.000985421 -0.000556675 -0.000550702 0.00310833 0.00326158 -0.000550702 -0.000507338 0.00326158 0.00329478 0.00310833 0.00326158 0.0118508 0.0125099 0.00326158 0.00329478 0.0125099 0.012848 -0.000507338 -0.000463433 0.00329478 0.00333769 -0.000463433 -0.000409877 0.00333769 0.00338927 0.00329478 0.00333769 0.012848 0.012905 0.00333769 0.00338927 0.012905 0.012947 0.0118508 0.0125099 0.012503 0.0132403 0.0125099 0.012848 0.0132403 0.0136991 0.012503 0.0132403 0.0125069 0.013227 0.0132403 0.0136991 0.013227 0.0136556 0.012848 0.012905 0.0136991 0.0138748 0.012905 0.012947 0.0138748 0.0138991 0.0136991 0.0138748 0.0136556 0.0137961 0.0138748 0.0138991 0.0137961 0.0137982 -0.000409877 -0.000386783 0.00338927 0.00341157 -0.000386783 -0.000504171 0.00341157 0.00329012 0.00338927 0.00341157 0.012947 0.0129564 0.00341157 0.00329012 0.0129564 0.0128465 -0.000504171 -0.000736865 0.00329012 0.00306308 -0.000736865 -0.000985421 0.00306308 0.00283226 0.00329012 0.00306308 0.0128465 0.0126751 0.00306308 0.00283226 0.0126751 0.0125136 0.012947 0.0129564 0.0138991 0.0138979 0.0129564 0.0128465 0.0138979 0.0138365 0.0138991 0.0138979 0.0137982 0.0137977 0.0138979 0.0138365 0.0137977 0.0137978 0.0128465 0.0126751 0.0138365 0.0137536 0.0126751 0.0125136 0.0137536 0.0136759 0.0138365 0.0137536 0.0137978 0.0137977 0.0137536 0.0136759 0.0137977 0.0137978 0 0 -0.000301709 -0.000605722 0 0 -0.000605722 -0.00089337 -0.000301709 -0.000605722 -0.000229017 -0.000459947 -0.000605722 -0.00089337 -0.000459947 -0.00067799 0 0 -0.00089337 -0.00104012 0 0 -0.00104012 -0.00101133 -0.00089337 -0.00104012 -0.00067799 -0.000789281 -0.00104012 -0.00101133 -0.000789281 -0.000767903 -0.000229017 -0.000459947 -0.00024653 -0.000495027 -0.000459947 -0.00067799 -0.000495027 -0.000729916 -0.00024653 -0.000495027 -0.000242319 -0.000486594 -0.000495027 -0.000729916 -0.000486594 -0.000717405 -0.00067799 -0.000789281 -0.000729916 -0.000849776 -0.000789281 -0.000767903 -0.000849776 -0.000826492 -0.000729916 -0.000849776 -0.000717405 -0.000835194 -0.000849776 -0.000826492 -0.000835194 -0.000812399 0 0 -0.00101133 -0.000945013 0 0 -0.000945013 -0.000885392 -0.00101133 -0.000945013 -0.000767903 -0.000717557 -0.000945013 -0.000885392 -0.000717557 -0.00067217 0 0 -0.000885392 -0.000817764 0 0 -0.000817764 -0.000743284 -0.000885392 -0.000817764 -0.00067217 -0.000620794 -0.000817764 -0.000743284 -0.000620794 -0.000564182 -0.000767903 -0.000717557 -0.000826492 -0.000772304 -0.000717557 -0.00067217 -0.000772304 -0.00072352 -0.000826492 -0.000772304 -0.000812399 -0.000759135 -0.000772304 -0.00072352 -0.000759135 -0.000711162 -0.00067217 -0.000620794 -0.00072352 -0.000668238 -0.000620794 -0.000564182 -0.000668238 -0.00060734 -0.00072352 -0.000668238 -0.000711162 -0.000656818 -0.000668238 -0.00060734 -0.000656818 -0.000596948 -0.000242319 -0.000486594 -0.000243292 -0.000488581 -0.000486594 -0.000717405 -0.000488581 -0.00072038 -0.000243292 -0.000488581 -0.00024323 -0.000488277 -0.000488581 -0.00072038 -0.000488277 -0.000719837 -0.000717405 -0.000835194 -0.00072038 -0.000838669 -0.000835194 -0.000812399 -0.000838669 -0.000815749 -0.00072038 -0.000838669 -0.000719837 -0.000838005 -0.000838669 -0.000815749 -0.000838005 -0.000815117 -0.00024323 -0.000488277 -0.000242531 -0.000487633 -0.000488277 -0.000719837 -0.000487633 -0.00071925 -0.000242531 -0.000487633 -0.000245652 -0.000490754 -0.000487633 -0.00071925 -0.000490754 -0.000722361 -0.000719837 -0.000838005 -0.00071925 -0.000837448 -0.000838005 -0.000815117 -0.000837448 -0.000814552 -0.00071925 -0.000837448 -0.000722361 -0.000840548 -0.000837448 -0.000814552 -0.000840548 -0.000817654 -0.000812399 -0.000759135 -0.000815749 -0.000762264 -0.000759135 -0.000711162 -0.000762264 -0.000714097 -0.000815749 -0.000762264 -0.000815117 -0.000761684 -0.000762264 -0.000714097 -0.000761684 -0.000713563 -0.000711162 -0.000656818 -0.000714097 -0.000659527 -0.000656818 -0.000596948 -0.000659527 -0.000599412 -0.000714097 -0.000659527 -0.000713563 -0.000659049 -0.000659527 -0.000599412 -0.000659049 -0.000598986 -0.000815117 -0.000761684 -0.000814552 -0.000761107 -0.000761684 -0.000713563 -0.000761107 -0.000712976 -0.000814552 -0.000761107 -0.000817654 -0.000764212 -0.000761107 -0.000712976 -0.000764212 -0.000716078 -0.000713563 -0.000659049 -0.000712976 -0.000658444 -0.000659049 -0.000598986 -0.000658444 -0.000598397 -0.000712976 -0.000658444 -0.000716078 -0.000661567 -0.000658444 -0.000598397 -0.000661567 -0.0006014 0 0 -0.000743284 -0.000661093 0 0 -0.000661093 -0.000571538 -0.000743284 -0.000661093 -0.000564182 -0.000501724 -0.000661093 -0.000571538 -0.000501724 -0.000433672 0 0 -0.000571538 -0.000476194 0 0 -0.000476194 -0.000378469 -0.000571538 -0.000476194 -0.000433672 -0.000361232 -0.000476194 -0.000378469 -0.000361232 -0.000286974 -0.000564182 -0.000501724 -0.00060734 -0.000540146 -0.000501724 -0.000433672 -0.000540146 -0.000466931 -0.00060734 -0.000540146 -0.000596948 -0.00053089 -0.000540146 -0.000466931 -0.00053089 -0.000458913 -0.000433672 -0.000361232 -0.000466931 -0.000388989 -0.000361232 -0.000286974 -0.000388989 -0.000309097 -0.000466931 -0.000388989 -0.000458913 -0.000382292 -0.000388989 -0.000309097 -0.000382292 -0.000303751 0 0 -0.000378469 -0.0002802 0 0 -0.0002802 -0.000183245 -0.000378469 -0.0002802 -0.000286974 -0.000212309 -0.0002802 -0.000183245 -0.000212309 -0.000138625 0 0 -0.000183245 -8.11465e-05 0 0 -8.11465e-05 0 -0.000183245 -8.11465e-05 -0.000138625 -6.09751e-05 -8.11465e-05 0 -6.09751e-05 0 -0.000286974 -0.000212309 -0.000309097 -0.000228763 -0.000212309 -0.000138625 -0.000228763 -0.000149492 -0.000309097 -0.000228763 -0.000303751 -0.000224777 -0.000228763 -0.000149492 -0.000224777 -0.000146847 -0.000138625 -6.09751e-05 -0.000149492 -6.59949e-05 -6.09751e-05 0 -6.59949e-05 0 -0.000149492 -6.59949e-05 -0.000146847 -6.47457e-05 -6.59949e-05 0 -6.47457e-05 0 -0.000596948 -0.00053089 -0.000599412 -0.000533085 -0.00053089 -0.000458913 -0.000533085 -0.000460816 -0.000599412 -0.000533085 -0.000598986 -0.000532709 -0.000533085 -0.000460816 -0.000532709 -0.000460488 -0.000458913 -0.000382292 -0.000460816 -0.000383883 -0.000382292 -0.000303751 -0.000383883 -0.000305023 -0.000460816 -0.000383883 -0.000460488 -0.000383609 -0.000383883 -0.000305023 -0.000383609 -0.000304804 -0.000598986 -0.000532709 -0.000598397 -0.000532167 -0.000532709 -0.000460488 -0.000532167 -0.000460027 -0.000598397 -0.000532167 -0.0006014 -0.00053491 -0.000532167 -0.000460027 -0.00053491 -0.000462368 -0.000460488 -0.000383609 -0.000460027 -0.000383221 -0.000383609 -0.000304804 -0.000383221 -0.000304492 -0.000460027 -0.000383221 -0.000462368 -0.000385186 -0.000383221 -0.000304492 -0.000385186 -0.000306072 -0.000303751 -0.000224777 -0.000305023 -0.000225728 -0.000224777 -0.000146847 -0.000225728 -0.000147481 -0.000305023 -0.000225728 -0.000304804 -0.000225565 -0.000225728 -0.000147481 -0.000225565 -0.000147373 -0.000146847 -6.47457e-05 -0.000147481 -6.50505e-05 -6.47457e-05 0 -6.50505e-05 0 -0.000147481 -6.50505e-05 -0.000147373 -6.50017e-05 -6.50505e-05 0 -6.50017e-05 0 -0.000304804 -0.000225565 -0.000304492 -0.000225326 -0.000225565 -0.000147373 -0.000225326 -0.00014721 -0.000304492 -0.000225326 -0.000306072 -0.000226527 -0.000225326 -0.00014721 -0.000226527 -0.000148023 -0.000147373 -6.50017e-05 -0.00014721 -6.49062e-05 -6.50017e-05 0 -6.49062e-05 0 -0.00014721 -6.49062e-05 -0.000148023 -6.53572e-05 -6.49062e-05 0 -6.53572e-05 0 -0.000245652 -0.000490754 -0.00023268 -0.000477725 -0.000490754 -0.000722361 -0.000477725 -0.000709316 -0.00023268 -0.000477725 -0.0002864 -0.000531697 -0.000477725 -0.000709316 -0.000531697 -0.000763366 -0.000722361 -0.000840548 -0.000709316 -0.000827521 -0.000840548 -0.000817654 -0.000827521 -0.000804629 -0.000709316 -0.000827521 -0.000763366 -0.000881506 -0.000827521 -0.000804629 -0.000881506 -0.000858603 -0.0002864 -0.000531697 -6.39312e-05 -0.000308185 -0.000531697 -0.000763366 -0.000308185 -0.00053953 -6.39312e-05 -0.000308185 -0.000985421 -0.00123398 -0.000308185 -0.00053953 -0.00123398 -0.00146667 -0.000763366 -0.000881506 -0.00053953 -0.000657926 -0.000881506 -0.000858603 -0.000657926 -0.00063507 -0.00053953 -0.000657926 -0.00146667 -0.00158405 -0.000657926 -0.00063507 -0.00158405 -0.00156099 -0.000817654 -0.000764212 -0.000804629 -0.000751187 -0.000764212 -0.000716078 -0.000751187 -0.000703073 -0.000804629 -0.000751187 -0.000858603 -0.000805151 -0.000751187 -0.000703073 -0.000805151 -0.000756969 -0.000716078 -0.000661567 -0.000703073 -0.000648498 -0.000661567 -0.0006014 -0.000648498 -0.00058884 -0.000703073 -0.000648498 -0.000756969 -0.000702616 -0.000648498 -0.00058884 -0.000702616 -0.000640847 -0.000858603 -0.000805151 -0.00063507 -0.000581678 -0.000805151 -0.000756969 -0.000581678 -0.000533715 -0.00063507 -0.000581678 -0.00156099 -0.00150729 -0.000581678 -0.000533715 -0.00150729 -0.00145865 -0.000756969 -0.000702616 -0.000533715 -0.00047862 -0.000702616 -0.000640847 -0.00047862 -0.000425592 -0.000533715 -0.00047862 -0.00145865 -0.00140593 -0.00047862 -0.000425592 -0.00140593 -0.00131666 -0.000985421 -0.00123398 0.00283226 0.00260144 -0.00123398 -0.00146667 0.00260144 0.00237438 0.00283226 0.00260144 0.0125136 0.0123521 0.00260144 0.00237438 0.0123521 0.0121806 -0.00146667 -0.00158405 0.00237438 0.00225298 -0.00158405 -0.00156099 0.00225298 0.00227512 0.00237438 0.00225298 0.0121806 0.0120708 0.00225298 0.00227512 0.0120708 0.0120801 0.0125136 0.0123521 0.0136759 0.0135982 0.0123521 0.0121806 0.0135982 0.0135153 0.0136759 0.0135982 0.0137978 0.0137977 0.0135982 0.0135153 0.0137977 0.0137978 0.0121806 0.0120708 0.0135153 0.0134538 0.0120708 0.0120801 0.0134538 0.0134532 0.0135153 0.0134538 0.0137978 0.0137977 0.0134538 0.0134532 0.0137977 0.0137982 -0.00156099 -0.00150729 0.00227512 0.00232735 -0.00150729 -0.00145865 0.00232735 0.00237402 0.00227512 0.00232735 0.0120801 0.0121224 0.00232735 0.00237402 0.0121224 0.0121339 -0.00145865 -0.00140593 0.00237402 0.0