# vtk DataFile Version 3.0
#This file was generated by the deal.II library on 2020/3/17 at 13:08:20
ASCII
DATASET UNSTRUCTURED_GRID

POINTS 15328 double
0.75 -1 0
1 -1 0
0.75 -0.75 0
1 -0.75 0
-1 0.75 0
-0.75 0.75 0
-1 1 0
-0.75 1 0
-0.75 -1 0
-0.625 -1 0
-0.75 -0.875 0
-0.625 -0.875 0
-0.625 -1 0
-0.5 -1 0
-0.625 -0.875 0
-0.5 -0.875 0
-0.625 -0.875 0
-0.5 -0.875 0
-0.625 -0.75 0
-0.5 -0.75 0
0.125 -1 0
0.25 -1 0
0.125 -0.875 0
0.25 -0.875 0
0.375 -0.625 0
0.5 -0.625 0
0.375 -0.5 0
0.5 -0.5 0
-0.5 0.5 0
-0.375 0.5 0
-0.5 0.625 0
-0.375 0.625 0
-0.25 0.875 0
-0.125 0.875 0
-0.25 1 0
-0.125 1 0
0.5 0.75 0
0.625 0.75 0
0.5 0.875 0
0.625 0.875 0
0.5 0.875 0
0.625 0.875 0
0.5 1 0
0.625 1 0
0.625 0.875 0
0.75 0.875 0
0.625 1 0
0.75 1 0
0.5 -0.75 0
0.625 -0.75 0
0.5 -0.625 0
0.625 -0.625 0
0.625 -0.75 0
0.75 -0.75 0
0.625 -0.625 0
0.75 -0.625 0
0.5 -0.625 0
0.625 -0.625 0
0.5 -0.5 0
0.625 -0.5 0
-0.625 0.5 0
-0.5 0.5 0
-0.625 0.625 0
-0.5 0.625 0
-0.75 0.625 0
-0.625 0.625 0
-0.75 0.75 0
-0.625 0.75 0
-0.625 0.625 0
-0.5 0.625 0
-0.625 0.75 0
-0.5 0.75 0
-1 -1 0
-0.875 -1 0
-1 -0.875 0
-0.875 -0.875 0
-0.875 -1 0
-0.75 -1 0
-0.875 -0.875 0
-0.75 -0.875 0
-1 -0.875 0
-0.875 -0.875 0
-1 -0.75 0
-0.875 -0.75 0
-0.5 -1 0
-0.375 -1 0
-0.5 -0.875 0
-0.375 -0.875 0
-0.375 -1 0
-0.25 -1 0
-0.375 -0.875 0
-0.25 -0.875 0
0.25 -1 0
0.375 -1 0
0.25 -0.875 0
0.375 -0.875 0
0.375 -1 0
0.5 -1 0
0.375 -0.875 0
0.5 -0.875 0
0.375 -0.875 0
0.5 -0.875 0
0.375 -0.75 0
0.5 -0.75 0
-0.5 0.75 0
-0.375 0.75 0
-0.5 0.875 0
-0.375 0.875 0
-0.5 0.875 0
-0.375 0.875 0
-0.5 1 0
-0.375 1 0
-0.375 0.875 0
-0.25 0.875 0
-0.375 1 0
-0.25 1 0
0.25 0.875 0
0.375 0.875 0
0.25 1 0
0.375 1 0
0.375 0.875 0
0.5 0.875 0
0.375 1 0
0.5 1 0
0.875 0.75 0
1 0.75 0
0.875 0.875 0
1 0.875 0
0.75 0.875 0
0.875 0.875 0
0.75 1 0
0.875 1 0
0.875 0.875 0
1 0.875 0
0.875 1 0
1 1 0
0.5 -1 0
0.625 -1 0
0.5 -0.875 0
0.625 -0.875 0
0.625 -1 0
0.75 -1 0
0.625 -0.875 0
0.75 -0.875 0
0.5 -0.875 0
0.625 -0.875 0
0.5 -0.75 0
0.625 -0.75 0
0.625 -0.875 0
0.75 -0.875 0
0.625 -0.75 0
0.75 -0.75 0
0.75 -0.75 0
0.875 -0.75 0
0.75 -0.625 0
0.875 -0.625 0
0.875 -0.75 0
1 -0.75 0
0.875 -0.625 0
1 -0.625 0
0.75 -0.625 0
0.875 -0.625 0
0.75 -0.5 0
0.875 -0.5 0
0.875 -0.625 0
1 -0.625 0
0.875 -0.5 0
1 -0.5 0
-1 0.5 0
-0.875 0.5 0
-1 0.625 0
-0.875 0.625 0
-0.875 0.5 0
-0.75 0.5 0
-0.875 0.625 0
-0.75 0.625 0
-1 0.625 0
-0.875 0.625 0
-1 0.75 0
-0.875 0.75 0
-0.875 0.625 0
-0.75 0.625 0
-0.875 0.75 0
-0.75 0.75 0
-0.75 0.75 0
-0.625 0.75 0
-0.75 0.875 0
-0.625 0.875 0
-0.625 0.75 0
-0.5 0.75 0
-0.625 0.875 0
-0.5 0.875 0
-0.75 0.875 0
-0.625 0.875 0
-0.75 1 0
-0.625 1 0
-0.625 0.875 0
-0.5 0.875 0
-0.625 1 0
-0.5 1 0
0.125 -0.25 0
0.1875 -0.25 0
0.125 -0.1875 0
0.1875 -0.1875 0
0.1875 -0.25 0
0.25 -0.25 0
0.1875 -0.1875 0
0.25 -0.1875 0
0.1875 -0.1875 0
0.25 -0.1875 0
0.1875 -0.125 0
0.25 -0.125 0
-0.25 0.125 0
-0.1875 0.125 0
-0.25 0.1875 0
-0.1875 0.1875 0
-0.25 0.1875 0
-0.1875 0.1875 0
-0.25 0.25 0
-0.1875 0.25 0
-0.1875 0.1875 0
-0.125 0.1875 0
-0.1875 0.25 0
-0.125 0.25 0
0.1875 0.1875 0
0.25 0.1875 0
0.1875 0.25 0
0.25 0.25 0
-0.25 -0.4375 0
-0.1875 -0.4375 0
-0.25 -0.375 0
-0.1875 -0.375 0
0.1875 0.375 0
0.25 0.375 0
0.1875 0.4375 0
0.25 0.4375 0
-0.4375 -0.1875 0
-0.375 -0.1875 0
-0.4375 -0.125 0
-0.375 -0.125 0
-0.3125 -0.25 0
-0.25 -0.25 0
-0.3125 -0.1875 0
-0.25 -0.1875 0
-0.375 -0.1875 0
-0.3125 -0.1875 0
-0.375 -0.125 0
-0.3125 -0.125 0
-0.3125 -0.1875 0
-0.25 -0.1875 0
-0.3125 -0.125 0
-0.25 -0.125 0
-0.25 -0.125 0
-0.1875 -0.125 0
-0.25 -0.0625 0
-0.1875 -0.0625 0
-0.25 -0.0625 0
-0.1875 -0.0625 0
-0.25 0 0
-0.1875 0 0
0.1875 -0.125 0
0.25 -0.125 0
0.1875 -0.0625 0
0.25 -0.0625 0
0.1875 -0.0625 0
0.25 -0.0625 0
0.1875 0 0
0.25 0 0
0.25 -0.125 0
0.3125 -0.125 0
0.25 -0.0625 0
0.3125 -0.0625 0
0.3125 -0.125 0
0.375 -0.125 0
0.3125 -0.0625 0
0.375 -0.0625 0
0.25 -0.0625 0
0.3125 -0.0625 0
0.25 0 0
0.3125 0 0
-0.3125 0 0
-0.25 0 0
-0.3125 0.0625 0
-0.25 0.0625 0
-0.3125 0.0625 0
-0.25 0.0625 0
-0.3125 0.125 0
-0.25 0.125 0
-0.25 0 0
-0.1875 0 0
-0.25 0.0625 0
-0.1875 0.0625 0
-0.25 0.0625 0
-0.1875 0.0625 0
-0.25 0.125 0
-0.1875 0.125 0
0.1875 0 0
0.25 0 0
0.1875 0.0625 0
0.25 0.0625 0
0.1875 0.0625 0
0.25 0.0625 0
0.1875 0.125 0
0.25 0.125 0
0.25 0.125 0
0.3125 0.125 0
0.25 0.1875 0
0.3125 0.1875 0
0.3125 0.125 0
0.375 0.125 0
0.3125 0.1875 0
0.375 0.1875 0
0.25 0.1875 0
0.3125 0.1875 0
0.25 0.25 0
0.3125 0.25 0
0.375 0.125 0
0.4375 0.125 0
0.375 0.1875 0
0.4375 0.1875 0
-0.5 -0.4375 0
-0.4375 -0.4375 0
-0.5 -0.375 0
-0.4375 -0.375 0
-0.4375 -0.4375 0
-0.375 -0.4375 0
-0.4375 -0.375 0
-0.375 -0.375 0
-0.375 -0.4375 0
-0.3125 -0.4375 0
-0.375 -0.375 0
-0.3125 -0.375 0
-0.3125 -0.4375 0
-0.25 -0.4375 0
-0.3125 -0.375 0
-0.25 -0.375 0
-0.25 -0.375 0
-0.1875 -0.375 0
-0.25 -0.3125 0
-0.1875 -0.3125 0
0.1875 -0.375 0
0.25 -0.375 0
0.1875 -0.3125 0
0.25 -0.3125 0
0.1875 -0.3125 0
0.25 -0.3125 0
0.1875 -0.25 0
0.25 -0.25 0
0.3125 -0.5 0
0.375 -0.5 0
0.3125 -0.4375 0
0.375 -0.4375 0
0.375 -0.5 0
0.4375 -0.5 0
0.375 -0.4375 0
0.4375 -0.4375 0
0.4375 -0.5 0
0.5 -0.5 0
0.4375 -0.4375 0
0.5 -0.4375 0
0.375 -0.4375 0
0.4375 -0.4375 0
0.375 -0.375 0
0.4375 -0.375 0
0.4375 -0.4375 0
0.5 -0.4375 0
0.4375 -0.375 0
0.5 -0.375 0
-0.5 0.375 0
-0.4375 0.375 0
-0.5 0.4375 0
-0.4375 0.4375 0
-0.4375 0.375 0
-0.375 0.375 0
-0.4375 0.4375 0
-0.375 0.4375 0
-0.5 0.4375 0
-0.4375 0.4375 0
-0.5 0.5 0
-0.4375 0.5 0
-0.4375 0.4375 0
-0.375 0.4375 0
-0.4375 0.5 0
-0.375 0.5 0
-0.375 0.4375 0
-0.3125 0.4375 0
-0.375 0.5 0
-0.3125 0.5 0
-0.25 0.25 0
-0.1875 0.25 0
-0.25 0.3125 0
-0.1875 0.3125 0
-0.25 0.3125 0
-0.1875 0.3125 0
-0.25 0.375 0
-0.1875 0.375 0
0.1875 0.3125 0
0.25 0.3125 0
0.1875 0.375 0
0.25 0.375 0
0.25 0.375 0
0.3125 0.375 0
0.25 0.4375 0
0.3125 0.4375 0
0.3125 0.375 0
0.375 0.375 0
0.3125 0.4375 0
0.375 0.4375 0
0.375 0.375 0
0.4375 0.375 0
0.375 0.4375 0
0.4375 0.4375 0
0.4375 0.375 0
0.5 0.375 0
0.4375 0.4375 0
0.5 0.4375 0
0.5 -0.25 0
0.5625 -0.25 0
0.5 -0.1875 0
0.5625 -0.1875 0
0.5625 -0.25 0
0.625 -0.25 0
0.5625 -0.1875 0
0.625 -0.1875 0
-0.625 0.1875 0
-0.5625 0.1875 0
-0.625 0.25 0
-0.5625 0.25 0
-0.5625 0.1875 0
-0.5 0.1875 0
-0.5625 0.25 0
-0.5 0.25 0
0.625 -0.5 0
0.6875 -0.5 0
0.625 -0.4375 0
0.6875 -0.4375 0
0.625 -0.4375 0
0.6875 -0.4375 0
0.625 -0.375 0
0.6875 -0.375 0
0.625 -0.375 0
0.6875 -0.375 0
0.625 -0.3125 0
0.6875 -0.3125 0
-0.6875 0.3125 0
-0.625 0.3125 0
-0.6875 0.375 0
-0.625 0.375 0
-0.6875 0.375 0
-0.625 0.375 0
-0.6875 0.4375 0
-0.625 0.4375 0
-0.6875 0.4375 0
-0.625 0.4375 0
-0.6875 0.5 0
-0.625 0.5 0
-0.75 -0.75 0
-0.6875 -0.75 0
-0.75 -0.6875 0
-0.6875 -0.6875 0
-0.6875 -0.75 0
-0.625 -0.75 0
-0.6875 -0.6875 0
-0.625 -0.6875 0
-0.75 -0.6875 0
-0.6875 -0.6875 0
-0.75 -0.625 0
-0.6875 -0.625 0
-0.6875 -0.6875 0
-0.625 -0.6875 0
-0.6875 -0.625 0
-0.625 -0.625 0
-0.75 -0.625 0
-0.6875 -0.625 0
-0.75 -0.5625 0
-0.6875 -0.5625 0
-0.6875 -0.625 0
-0.625 -0.625 0
-0.6875 -0.5625 0
-0.625 -0.5625 0
-0.25 -0.6875 0
-0.1875 -0.6875 0
-0.25 -0.625 0
-0.1875 -0.625 0
0.1875 0.625 0
0.25 0.625 0
0.1875 0.6875 0
0.25 0.6875 0
0.625 0.5625 0
0.6875 0.5625 0
0.625 0.625 0
0.6875 0.625 0
0.6875 0.5625 0
0.75 0.5625 0
0.6875 0.625 0
0.75 0.625 0
0.625 0.625 0
0.6875 0.625 0
0.625 0.6875 0
0.6875 0.6875 0
0.6875 0.625 0
0.75 0.625 0
0.6875 0.6875 0
0.75 0.6875 0
0.625 0.6875 0
0.6875 0.6875 0
0.625 0.75 0
0.6875 0.75 0
0.6875 0.6875 0
0.75 0.6875 0
0.6875 0.75 0
0.75 0.75 0
0.375 -0.25 0
0.4375 -0.25 0
0.375 -0.1875 0
0.4375 -0.1875 0
0.4375 -0.25 0
0.5 -0.25 0
0.4375 -0.1875 0
0.5 -0.1875 0
0.375 -0.1875 0
0.4375 -0.1875 0
0.375 -0.125 0
0.4375 -0.125 0
0.4375 -0.1875 0
0.5 -0.1875 0
0.4375 -0.125 0
0.5 -0.125 0
-0.5 0.125 0
-0.4375 0.125 0
-0.5 0.1875 0
-0.4375 0.1875 0
-0.4375 0.125 0
-0.375 0.125 0
-0.4375 0.1875 0
-0.375 0.1875 0
-0.5 0.1875 0
-0.4375 0.1875 0
-0.5 0.25 0
-0.4375 0.25 0
-0.4375 0.1875 0
-0.375 0.1875 0
-0.4375 0.25 0
-0.375 0.25 0
-0.625 -0.5 0
-0.5625 -0.5 0
-0.625 -0.4375 0
-0.5625 -0.4375 0
-0.5625 -0.5 0
-0.5 -0.5 0
-0.5625 -0.4375 0
-0.5 -0.4375 0
-0.5625 -0.4375 0
-0.5 -0.4375 0
-0.5625 -0.375 0
-0.5 -0.375 0
-0.5625 -0.375 0
-0.5 -0.375 0
-0.5625 -0.3125 0
-0.5 -0.3125 0
-0.5 -0.375 0
-0.4375 -0.375 0
-0.5 -0.3125 0
-0.4375 -0.3125 0
-0.4375 -0.375 0
-0.375 -0.375 0
-0.4375 -0.3125 0
-0.375 -0.3125 0
-0.5 -0.3125 0
-0.4375 -0.3125 0
-0.5 -0.25 0
-0.4375 -0.25 0
-0.4375 -0.3125 0
-0.375 -0.3125 0
-0.4375 -0.25 0
-0.375 -0.25 0
-0.375 -0.375 0
-0.3125 -0.375 0
-0.375 -0.3125 0
-0.3125 -0.3125 0
-0.3125 -0.375 0
-0.25 -0.375 0
-0.3125 -0.3125 0
-0.25 -0.3125 0
-0.375 -0.3125 0
-0.3125 -0.3125 0
-0.375 -0.25 0
-0.3125 -0.25 0
-0.3125 -0.3125 0
-0.25 -0.3125 0
-0.3125 -0.25 0
-0.25 -0.25 0
0.375 -0.375 0
0.4375 -0.375 0
0.375 -0.3125 0
0.4375 -0.3125 0
0.4375 -0.375 0
0.5 -0.375 0
0.4375 -0.3125 0
0.5 -0.3125 0
0.375 -0.3125 0
0.4375 -0.3125 0
0.375 -0.25 0
0.4375 -0.25 0
0.4375 -0.3125 0
0.5 -0.3125 0
0.4375 -0.25 0
0.5 -0.25 0
-0.5 0.25 0
-0.4375 0.25 0
-0.5 0.3125 0
-0.4375 0.3125 0
-0.4375 0.25 0
-0.375 0.25 0
-0.4375 0.3125 0
-0.375 0.3125 0
-0.5 0.3125 0
-0.4375 0.3125 0
-0.5 0.375 0
-0.4375 0.375 0
-0.4375 0.3125 0
-0.375 0.3125 0
-0.4375 0.375 0
-0.375 0.375 0
0.25 0.25 0
0.3125 0.25 0
0.25 0.3125 0
0.3125 0.3125 0
0.3125 0.25 0
0.375 0.25 0
0.3125 0.3125 0
0.375 0.3125 0
0.25 0.3125 0
0.3125 0.3125 0
0.25 0.375 0
0.3125 0.375 0
0.3125 0.3125 0
0.375 0.3125 0
0.3125 0.375 0
0.375 0.375 0
0.375 0.25 0
0.4375 0.25 0
0.375 0.3125 0
0.4375 0.3125 0
0.4375 0.25 0
0.5 0.25 0
0.4375 0.3125 0
0.5 0.3125 0
0.375 0.3125 0
0.4375 0.3125 0
0.375 0.375 0
0.4375 0.375 0
0.4375 0.3125 0
0.5 0.3125 0
0.4375 0.375 0
0.5 0.375 0
0.5 0.3125 0
0.5625 0.3125 0
0.5 0.375 0
0.5625 0.375 0
0.5 0.375 0
0.5625 0.375 0
0.5 0.4375 0
0.5625 0.4375 0
0.5 0.4375 0
0.5625 0.4375 0
0.5 0.5 0
0.5625 0.5 0
0.5625 0.4375 0
0.625 0.4375 0
0.5625 0.5 0
0.625 0.5 0
-1 -0.375 0
-0.9375 -0.375 0
-1 -0.3125 0
-0.9375 -0.3125 0
-1 -0.3125 0
-0.9375 -0.3125 0
-1 -0.25 0
-0.9375 -0.25 0
[...]
POINT_DATA 15328
SCALARS x_displacement double 1
LOOKUP_TABLE default
0 0 0.000239297 0 0 0.00024051 0 0 0 0 0.00127474 0.00157424 0 0 0.00157424 0.00176546 0.00157424 0.00176546 0.00348016 0.00351093 0 0 0.00117021 0.000645605 0.0027928 0.00194831 0.00492468 0.00397937 0.00398104 0.0049226 0.00195028 0.00279517 0.000640622 0.00116137 0 0 0.00350254 0.00347219 0.00176371 0.00157148 0.00176371 0.00157148 0 0 0.00157148 0.00127248 0 0 0.000639833 0.000344785 0.00194831 0.00141508 0.000344785 0.000239297 0.00141508 0.000906868 0.00194831 0.00141508 0.00397937 0.00324775 0.00325147 0.00398104 0.00141724 0.00195028 0.000908684 0.00141724 0.00024051 0.000346493 0.00141724 0.00195028 0.000346493 0.00064139 0 0 0 0.000780308 0 0 0.000780308 0.00127474 0 0.000780308 0 0.00105583 0 0 0.00176546 0.00188191 0 0 0.00188191 0.00172498 0 0 0.000645605 0.00024899 0 0 0.00024899 6.35589e-05 0.00024899 6.35589e-05 0.00128381 0.000639833 0.00064139 0.00128477 6.41087e-05 0.000248022 6.41087e-05 0.000248022 0 0 0.000248022 0.000640622 0 0 0.00173166 0.00188406 0 0 0.00188406 0.00176371 0 0 0.00105381 0 0.000778927 0 0.00127248 0.000778927 0 0 0.000778927 0 0 0 0 0 6.35589e-05 -1.93075e-05 0 0 -1.93075e-05 6.76452e-06 6.35589e-05 -1.93075e-05 0.000639833 0.000344785 -1.93075e-05 6.76452e-06 0.000344785 0.000239297 0.000239297 0.000351965 0.000906868 0.00049668 0.000351965 0 0.00049668 0 0.000906868 0.00049668 0.00182086 0.0010106 0.00049668 0 0.0010106 0 0 0.00101162 0 0.000497642 0.00101162 0.0018231 0.000497642 0.000908684 0 0.000497642 0 0.000353172 0.000497642 0.000908684 0.000353172 0.00024051 0.00024051 0.000346493 8.4231e-06 -1.81626e-05 0.000346493 0.00064139 -1.81626e-05 6.41087e-05 8.4231e-06 -1.81626e-05 0 0 -1.81626e-05 6.41087e-05 0 0 0.0143348 0.0137898 0.0162413 0.016008 0.0137898 0.0135858 0.016008 0.0161637 0.016008 0.0161637 0.0183246 0.0188453 0.0187732 0.0182714 0.0161421 0.0159719 0.0161421 0.0159719 0.0135712 0.013764 0.0159719 0.0162064 0.013764 0.0142991 0.0200227 0.0206948 0.0184032 0.0186052 0.0121662 0.0120219 0.0140273 0.0139885 0.0139761 0.0140032 0.0120074 0.0121376 0.021646 0.0216487 0.0247211 0.0243629 0.0184045 0.0184946 0.0213109 0.0208151 0.0216487 0.0213109 0.0243629 0.02347 0.0213109 0.0208151 0.02347 0.0225691 0.0225691 0.0216364 0.0231506 0.0219905 0.0231506 0.0219905 0.0227445 0.0216103 0.0183246 0.0188453 0.0203683 0.0212363 0.0203683 0.0212363 0.0216496 0.0227811 0.0188453 0.0198064 0.0212363 0.0225601 0.0198064 0.0209415 0.0225601 0.0241871 0.0212363 0.0225601 0.0227811 0.0245323 0.0245133 0.0227445 0.0224146 0.0211518 0.0224146 0.0211518 0.0197262 0.0187732 0.0227445 0.0216103 0.0211518 0.0203127 0.0211518 0.0203127 0.0187732 0.0182714 0.0216496 0.0227811 0.0220165 0.0231716 0.0220165 0.0231716 0.0217084 0.022574 0.022574 0.0234571 0.0206948 0.0212819 0.0234571 0.0243531 0.0212819 0.0216358 0.0206948 0.0212819 0.0186052 0.0184315 0.0243531 0.0247088 0.0216358 0.0216248 0.0102232 0.0111208 0.0120786 0.0128195 0.0111208 0.0116635 0.0128195 0.0134798 0.0116635 0.0119957 0.0134798 0.013877 0.0119957 0.0121662 0.013877 0.0140273 0.0140273 0.0139885 0.0161563 0.0159137 0.0100891 0.00938086 0.0118105 0.0113185 0.0118105 0.0113185 0.0137898 0.0135858 0.00549235 0.00492468 0.00705299 0.00627081 0.00492468 0.00442208 0.00627081 0.00582404 0.00442208 0.00397937 0.00582404 0.0054357 0.00627081 0.00582404 0.00816632 0.00767349 0.00582404 0.0054357 0.00767349 0.00722969 0.00723435 0.00767331 0.00543824 0.00582349 0.00767331 0.00816032 0.00582349 0.00626664 0.00543824 0.00582349 0.00398104 0.00442186 0.00582349 0.00626664 0.00442186 0.0049226 0.00626664 0.00704334 0.0049226 0.00548855 0.0135712 0.013764 0.0112995 0.0117848 0.0112995 0.0117848 0.00936183 0.0100624 0.0158971 0.0161143 0.0139761 0.0140032 0.0140032 0.01384 0.0121376 0.0119593 0.01384 0.0134537 0.0119593 0.0116265 0.0134537 0.0127923 0.0116265 0.0110884 0.0127923 0.0120496 0.0110884 0.010194 0.0127002 0.012007 0.0170022 0.0158136 0.012007 0.0110568 0.0158136 0.0142672 0.0142793 0.0158291 0.0110694 0.0120237 0.0158291 0.0170281 0.0120237 0.0127214 0.00324775 0.00271953 0.00452406 0.00403377 0.00452406 0.00403377 0.00616256 0.00556608 0.00616256 0.00556608 0.00825967 0.00718496 0.00719168 0.00826977 0.00557213 0.00616972 0.00557213 0.00616972 0.00403847 0.00452911 0.00403847 0.00452911 0.0027232 0.00325147 0.0026513 0.00305978 0.00329365 0.00376096 0.00305978 0.00348016 0.00376096 0.00409226 0.00329365 0.00376096 0.00386966 0.00443196 0.00376096 0.00409226 0.00443196 0.00484357 0.00386966 0.00443196 0.00435246 0.00514772 0.00443196 0.00484357 0.00514772 0.00592937 0.00554374 0.00531279 0.0068785 0.00686732 0.00683982 0.00685273 0.00531122 0.00553261 0.00591216 0.00513422 0.00483032 0.00442101 0.00513422 0.00434193 0.00442101 0.00386086 0.00483032 0.00442101 0.00408136 0.00375206 0.00442101 0.00386086 0.00375206 0.00328652 0.00408136 0.00375206 0.00347219 0.00305304 0.00375206 0.00328652 0.00305304 0.00264584 0.0134245 0.0131705 0.0169998 0.0173108 0.0131705 0.0127002 0.0173108 0.0170022 0.0169998 0.0173108 0.0209415 0.0217097 0.0173108 0.0170022 0.0217097 0.0215085 0.0215115 0.0217218 0.0170281 0.017365 0.0217218 0.0212103 0.017365 0.0169936 0.0170281 0.017365 0.0127214 0.0131798 0.017365 0.0169936 0.0131798 0.0134251 0.00727046 0.00788896 0.00839419 0.00943618 0.00788896 0.00845279 0.00943618 0.0102232 0.00943618 0.0102232 0.0112934 0.0120786 0.0112934 0.0120786 0.0130433 0.0141623 0.0120786 0.0128195 0.0141623 0.0150006 0.0128195 0.0134798 0.0150006 0.0156522 0.0141623 0.0150006 0.0169977 0.0176364 0.0150006 0.0156522 0.0176364 0.0180583 0.0134798 0.013877 0.0156522 0.0160448 0.013877 0.0140273 0.0160448 0.0161563 0.0156522 0.0160448 0.0180583 0.0184045 0.0160448 0.0161563 0.0184045 0.0184946 0.00816632 0.00767349 0.0105513 0.0101091 0.00767349 0.00722969 0.0101091 0.00960156 0.0105513 0.0101091 0.0134245 0.0131705 0.0101091 0.00960156 0.0131705 0.0127002 0.0127214 0.0131798 0.00961085 0.0101122 0.0131798 0.0134251 0.0101122 0.0105447 0.00961085 0.0101122 0.00723435 0.00767331 0.0101122 0.0105447 0.00767331 0.00816032 0.0186052 0.0184315 0.0161143 0.0160482 0.0184315 0.0180548 0.0160482 0.0156417 0.0161143 0.0160482 0.0140032 0.01384 0.0160482 0.0156417 0.01384 0.0134537 0.0180548 0.0176169 0.0156417 0.0149795 0.0176169 0.0169654 0.0149795 0.0141339 0.0156417 0.0149795 0.0134537 0.0127923 0.0149795 0.0141339 0.0127923 0.0120496 0.0141339 0.013009 0.0120496 0.0112636 0.0120496 0.0112636 0.010194 0.00940901 0.010194 0.00940901 0.00842572 0.00786492 0.00940901 0.00836891 0.00786492 0.00724917 0 0.00136813 0 0.00147111 0 0.00147111 0 0.0016982 0.00169227 0 0.00145491 0 0.00145491 0 0.00135831 0 0.00722969 0.00672308 0.00960156 0.00900415 0.00672308 0.00616256 0.00900415 0.00825967 0.00960156 0.00900415 0.0127002 0.012007 0.00900415 0.00825967 0.012007 0.0110568 0.00137118 0 0.00155426 0 0.00155426 0 0.00178976 0 0.00178976 0 0.00195406 0 0.00195406 0 0.00213431 0 0 0.00212752 0 0.00195747 0 0.00195747 0 0.00179393 0 0.00179393 0 0.0015567 0 0.0015567 0 0.00137251 0.0110694 0.0120237 0.00826977 0.00901607 0.0120237 0.0127214 0.00901607 0.00961085 0.00826977 0.00901607 0.00616972 0.00673007 0.00901607 0.00961085 0.00673007 0.00723435 0.00592937 0.00665795 0.00727046 0.00788896 0.00665795 0.00721417 0.00788896 0.00845279 0.0068785 0.00686732 0.00833764 0.00828867 0.00686732 0.00667408 0.00828867 0.00807423 0.00833764 0.00828867 0.00998652 0.00992939 0.00828867 0.00807423 0.00992939 0.00955975 0.00667408 0.0063601 0.00807423 0.00763386 0.0063601 0.00589729 0.00763386 0.00719992 0.00486797 0.00438916 0.00619635 0.00544623 0.00438916 0.00377735 0.00544623 0.00492266 0.00544623 0.00492266 0.0068864 0.00617361 0.00616692 0.00687565 0.00492448 0.00545001 0.00492448 0.00545001 0.00378335 0.00440061 0.00545001 0.00620303 0.00440061 0.00488872 0.00762265 0.00804103 0.00629636 0.00664809 0.0095464 0.00990452 0.00804103 0.00825416 0.00990452 0.00995491 0.00825416 0.0083053 0.00804103 0.00825416 0.00664809 0.00683982 0.00825416 0.0083053 0.00683982 0.00685273 0.00842572 0.00786492 0.00718943 0.00663681 0.00786492 0.00724917 0.00663681 0.00591216 0.00392747 0.00311181 0.00534439 0.00441741 0.00441983 0.00534806 0.00311393 0.00393069 0.00127474 0.00164061 0.00207481 0.00210539 0.00164061 0.00157424 0.00210539 0.0020813 0.00207481 0.00210539 0.0026513 0.00305978 0.00210539 0.0020813 0.00305978 0.00348016 0.0022209 0.0026513 0.00277454 0.00329365 0.00277454 0.00329365 0.00322521 0.00386966 0.00322521 0.00386966 0.00364648 0.00435246 0.00364648 0.00435246 0.00405233 0.00487802 0.00327417 0.0030681 0.00414743 0.00409513 0.0030681 0.00291367 0.00409513 0.0039125 0.00291367 0.00271306 0.0039125 0.00369576 0.00271306 0.00248005 0.00369576 0.00341459 0.00504199 0.00524442 0.00593206 0.00628407 0.00524442 0.00544213 0.00628407 0.00659479 0.00544213 0.00555527 0.00659479 0.00678651 0.00555527 0.00554374 0.00678651 0.0068785 0.00659479 0.00678651 0.00784848 0.00819243 0.00678651 0.0068785 0.00819243 0.00833764 0.00819243 0.00833764 0.0100205 0.00998652 0.00248005 0.00219908 0.00341459 0.00305947 0.00219908 0.00176053 0.00305947 0.00268764 0.0029166 0.00241938 0.00377735 0.0033069 0.00241938 0.00186584 0.0033069 0.0027928 0.00128381 0.000998862 0.00186584 0.0016721 0.000998862 0.000639833 0.0016721 0.00178836 0.00186584 0.0016721 0.0027928 0.00249295 0.0016721 0.00178836 0.00249295 0.00194831 0.00377735 0.0033069 0.00492266 0.00444612 0.0033069 0.0027928 0.00444612 0.00415548 0.00492266 0.00444612 0.00617361 0.00549235 0.00444612 0.00415548 0.00549235 0.00492468 0.0049226 0.00548855 0.00415624 0.00444688 0.00548855 0.00616692 0.00444688 0.00492448 0.00415624 0.00444688 0.00279517 0.00331043 0.00444688 0.00492448 0.00331043 0.00378335 0.00195028 0.00249482 0.00179037 0.00167424 0.00249482 0.00279517 0.00167424 0.00186861 0.00179037 0.00167424 0.00064139 0.00100098 0.00167424 0.00186861 0.00100098 0.00128477 0.00279517 0.00331043 0.00186861 0.00242274 0.00331043 0.00378335 0.00242274 0.00292109 0.00267982 0.00304297 0.00174807 0.00218372 0.00304297 0.00340029 0.00218372 0.00247051 0.00995491 0.00998489 0.0083053 0.00816129 0.0083053 0.00816129 0.00685273 0.00676201 0.00816129 0.0078192 0.00676201 0.00657126 0.00685273 0.00676201 0.00553261 0.00554065 0.00676201 0.00657126 0.00554065 0.00542612 0.00657126 0.00626213 0.00542612 0.00522849 0.00626213 0.00591242 0.00522849 0.00502717 0.00340029 0.00370247 0.00247051 0.00271571 0.00370247 0.0039303 0.00271571 0.00292598 0.0039303 0.00410582 0.00292598 0.00308141 0.00410582 0.00414997 0.00308141 0.00328214 0.00486423 0.00404105 0.00434193 0.00363794 0.00434193 0.00363794 0.00386086 0.00321825 0.00386086 0.00321825 0.00328652 0.00276884 0.00328652 0.00276884 0.00264584 0.00221654 0.00347219 0.00305304 0.00207694 0.00210114 0.00305304 0.00264584 0.00210114 0.00207079 0.00207694 0.00210114 0.00157148 0.00163764 0.00210114 0.00207079 0.00163764 0.00127248 0.0135858 0.0135197 0.0161637 0.0165495 0.0135197 0.0134245 0.0165495 0.0169998 0.0161637 0.0165495 0.0188453 0.0198064 0.0165495 0.0169998 0.0198064 0.0209415 0.0212103 0.0197262 0.0169936 0.0165603 0.0197262 0.0187732 0.0165603 0.0161421 0.0169936 0.0165603 0.0134251 0.0135067 0.0165603 0.0161421 0.0135067 0.0135712 0.00938086 0.008765 0.0113185 0.0109299 0.008765 0.00816632 0.0109299 0.0105513 0.0113185 0.0109299 0.0135858 0.0135197 0.0109299 0.0105513 0.0135197 0.0134245 0.0134251 0.0135067 0.0105447 0.0109174 0.0135067 0.0135712 0.0109174 0.0112995 0.0105447 0.0109174 0.00816032 0.00875195 0.0109174 0.0112995 0.00875195 0.00936183 0 0.00109678 0 0.0012855 0.00109678 0.00213931 0.0012855 0.00252184 0 0.0012855 0 0.00136813 0.0012855 0.00252184 0.00136813 0.00304625 0.00302638 0.00135831 0.0025115 0.00127941 0.00135831 0 0.00127941 0 0.0025115 0.00127941 0.00213301 0.00109314 0.00127941 0 0.00109314 0 0.00397937 0.00358374 0.0054357 0.00495773 0.00358374 0.00324775 0.00495773 0.00452406 0.0054357 0.00495773 0.00722969 0.00672308 0.00495773 0.00452406 0.00672308 0.00616256 0.00616972 0.00673007 0.00452911 0.00496217 0.00673007 0.00723435 0.00496217 0.00543824 0.00452911 0.00496217 0.00325147 0.00358796 0.00496217 0.00543824 0.00358796 0.00398104 0.00348016 0.00402595 0.00409226 0.0045492 0.00402595 0.00351093 0.0045492 0.00504199 0.00409226 0.0045492 0.00484357 0.00538588 0.0045492 0.00504199 0.00538588 0.00593206 0.00591242 0.0053695 0.00502717 0.00453646 0.0053695 0.00483032 0.00453646 0.00408136 0.00502717 0.00453646 0.00350254 0.00401529 0.00453646 0.00408136 0.00401529 0.00347219 0.00182086 0.0016412 0.00281083 0.00211383 0.0016412 0.0010106 0.00211383 0.00154311 0.00281083 0.00211383 0.00392747 0.00311181 0.00211383 0.00154311 0.00311181 0.0018043 0.0010106 0.000858983 0.00154311 0.000760798 0.000858983 0 0.000760798 0 0.00154311 0.000760798 0.0018043 0.000929207 0.000760798 0 0.000929207 0 0.0018043 0.000929207 0.00230213 0.00117088 0.000929207 0 0.00117088 0 0.00230213 0.00117088 0.00321334 0.00137118 0.00117088 0 0.00137118 0 0 0.00137251 0 0.00117166 0.00137251 0.00321585 0.00117166 0.0023034 0 0.00117166 0 0.000929798 0.00117166 0.0023034 0.000929798 0.0018054 0 0.000929798 0 0.000761374 0.000929798 0.0018054 0.000761374 0.00154436 0 0.000761374 0 0.000859813 0.000761374 0.00154436 0.000859813 0.00101162 0.0018054 0.00311393 0.00154436 0.00211567 0.00311393 0.00393069 0.00211567 0.00281368 0.00154436 0.00211567 0.00101162 0.00164321 0.00211567 0.00281368 0.00164321 0.0018231 0 0.000991199 0 0.000739128 0.000991199 0.00105583 0.000739128 0.00145695 0 0.000739128 0 0.000824584 0.000739128 0.00145695 0.000824584 0.00157266 0 0.000824584 0 0.000935085 0.000824584 0.00157266 0.000935085 0.00177454 0 0.000935085 0 0.00109678 0.000935085 0.00177454 0.00109678 0.00213931 0 0 0.00129131 0.00101015 0 0 0.00101015 0.000879819 0.00129131 0.00101015 0.00172498 0.00187578 0.00101015 0.000879819 0.00187578 0.00176291 0 0 0.000879819 0.000785663 0 0 0.000785663 0.000684912 0.000879819 0.000785663 0.00176291 0.00161821 0.000785663 0.000684912 0.00161821 0.00145575 0.00593206 0.00628407 0.00721417 0.00755248 0.00628407 0.00659479 0.00755248 0.00784848 0.00721417 0.00755248 0.00845279 0.00907368 0.00755248 0.00784848 0.00907368 0.0094598 0 0 0.000684912 0.000556787 0 0 0.000556787 0.000338175 0.000684912 0.000556787 0.00145575 0.00130898 0.000556787 0.000338175 0.00130898 0.00117021 0.00117021 0.00104281 0.00176053 0.00151999 0.00104281 0.000645605 0.00151999 0.00132429 0.00176053 0.00151999 0.00268764 0.00232313 0.00151999 0.00132429 0.00232313 0.00196892 0.00196903 0.002321 0.00132028 0.00151251 0.002321 0.00267982 0.00151251 0.00174807 0.00132028 0.00151251 0.000640622 0.00103283 0.00151251 0.00174807 0.00103283 0.00116137 0.00116137 0.00129916 0.000330089 0.000550845 0.00129916 0.00145016 0.000550845 0.00068177 0.000330089 0.000550845 0 0 0.000550845 0.00068177 0 0 0.00942631 0.00904285 0.0078192 0.00752514 0.00904285 0.00842572 0.00752514 0.00718943 0.0078192 0.00752514 0.00657126 0.00626213 0.00752514 0.00718943 0.00626213 0.00591242 0.00145016 0.00161915 0.00068177 0.00078605 0.00161915 0.00176956 0.00078605 0.000883444 0.00068177 0.00078605 0 0 0.00078605 0.000883444 0 0 0.00176956 0.00188498 0.000883444 0.00101593 0.00188498 0.00173166 0.00101593 0.00129889 0.000883444 0.00101593 0 0 0.00101593 0.00129889 0 0 0.00213301 0.00109314 0.00177033 0.000932626 0.00109314 0 0.000932626 0 0.00177033 0.000932626 0.00156934 0.000822715 0.000932626 0 0.000822715 0 0.00156934 0.000822715 0.00145402 0.000737582 0.000822715 0 0.000737582 0 0.00145402 0.000737582 0.00105381 0.000989207 0.000737582 0 0.000989207 0 0.00141508 0.00119095 0.00179385 0.00182221 0.00119095 0.000906868 0.00182221 0.00197724 0.00179385 0.00182221 0.00324775 0.00271953 0.00182221 0.00197724 0.00271953 0.00182086 0.0018231 0.0027232 0.00198044 0.00182513 0.0027232 0.00325147 0.00182513 0.00179683 0.00198044 0.00182513 0.000908684 0.00119359 0.00182513 0.00179683 0.00119359 0.00141724 0.000780308 0.00154049 0.00206179 0.0018812 0.00154049 0.00127474 0.0018812 0.00207481 0.00206179 0.0018812 0.00105583 0.0022209 0.0018812 0.00207481 0.0022209 0.0026513 0.00176546 0.00235956 0.00328214 0.00309566 0.00235956 0.00188191 0.00309566 0.00318648 0.00328214 0.00309566 0.00351093 0.00401758 0.00309566 0.00318648 0.00401758 0.00411435 0.00188191 0.00238546 0.00318648 0.00311246 0.00238546 0.00172498 0.00311246 0.00327417 0.00318648 0.00311246 0.00411435 0.00419196 0.00311246 0.00327417 0.00419196 0.00414743 0.000645605 0.000592201 0.00132429 0.00103771 0.000592201 0.00024899 0.00103771 0.00102613 0.00132429 0.00103771 0.00196892 0.00168141 0.00103771 0.00102613 0.00168141 0.00128381 0.00128477 0.00168209 0.00102457 0.00103571 0.00168209 0.00196903 0.00103571 0.00132028 0.00102457 0.00103571 0.000248022 0.000589025 0.00103571 0.00132028 0.000589025 0.000640622 0.00414997 0.0041887 0.00328214 0.00311546 0.0041887 0.00410778 0.00311546 0.0031857 0.00328214 0.00311546 0.00173166 0.00239158 0.00311546 0.0031857 0.00239158 0.00188406 0.00410778 0.00400943 0.0031857 0.00309275 0.00400943 0.00350254 0.00309275 0.00327846 0.0031857 0.00309275 0.00188406 0.00235925 0.00309275 0.00327846 0.00235925 0.00176371 0.00264584 0.00221654 0.00207079 0.0018777 0.00221654 0.00105381 0.0018777 0.00205795 0.00207079 0.0018777 0.00127248 0.00153778 0.0018777 0.00205795 0.00153778 0.000778927 0.00999026 0.0112635 0.0108926 0.0121166 0.0112635 0.012471 0.0121166 0.0132998 0.0108926 0.0121166 0.011795 0.0131615 0.0121166 0.0132998 0.0131615 0.0145365 0.0185916 0.0170682 0.0175728 0.0161022 0.0144748 0.0130571 0.0132295 0.0120361 0.0130571 0.0116726 0.0120361 0.0108039 0.0132295 0.0120361 0.0124083 0.0111911 0.0120361 0.0108039 0.0111911 0.00990613 0.0183392 0.0181118 0.0192413 0.0188676 0.0145506 0.0143348 0.0154422 0.0150016 0.0154422 0.0150016 0.0163824 0.0162413 0.0162064 0.0163476 0.0149639 0.0154056 0.0149639 0.0154056 0.0142991 0.0145123 0.0199079 0.0200227 0.0189663 0.0192854 0.0189663 0.0192854 0.0179889 0.0184032 0.0244273 0.0234736 0.0247538 0.023383 0.0234736 0.0222646 0.023383 0.0222035 0.023383 0.0222035 0.0228713 0.0218418 0.0228713 0.0218418 0.0222726 0.021104 0.023701 0.0222726 0.0225689 0.0213074 0.0222726 0.021104 0.0213074 0.0199034 0.00768608 0.00819136 0.0081865 0.00879901 0.00722262 0.0081865 0.00792119 0.00869369 0.0081865 0.00879901 0.00869369 0.00947489 0.00792119 0.00869369 0.00842112 0.00938306 0.00869369 0.00947489 0.00938306 0.0103798 0.00644931 0.00737167 0.00685772 0.00789742 0.00685772 0.00789742 0.00702699 0.00845976 0.00845976 0.00968864 0.00897794 0.0101891 0.00968864 0.0108926 0.0101891 0.011795 0.00897794 0.0101891 0.00924199 0.010521 0.00924199 0.010521 0.00947924 0.0108443 0.00947924 0.0108443 0.00965287 0.011085 0.00965287 0.011085 0.00961625 0.0110839 0.0116235 0.0114405 0.0126615 0.0123343 0.0114405 0.0111907 0.0123343 0.012063 0.0111907 0.0109092 0.012063 0.0117528 0.0109092 0.0105939 0.0117528 0.0114111 0.0105939 0.0102502 0.0114111 0.0110471 0.0102502 0.00988618 0.0110471 0.0106714 0.00988618 0.00951162 0.0106714 0.0102932 0.00951162 0.00912979 0.0102932 0.00991748 0.00912979 0.00873612 0.00991748 0.00954228 0.00873612 0.00840913 0.00954228 0.00902536 0.0089986 0.0095092 0.00838529 0.00870737 0.0095092 0.00987877 0.00870737 0.00909484 0.00987877 0.0102495 0.00909484 0.00947026 0.0102495 0.0106247 0.00947026 0.00983985 0.0106247 0.0110011 0.00983985 0.010203 0.0110011 0.0113701 0.010203 0.0105527 0.0113701 0.0117204 0.0105527 0.0108794 0.0117204 0.01204 0.0108794 0.0111729 0.01204 0.0123191 0.0111729 0.0114301 0.0123191 0.0126515 0.0114301 0.011616 0.0108578 0.00942054 0.0107224 0.00937077 0.0107224 0.00937077 0.010396 0.00913219 0.010396 0.00913219 0.0100707 0.00884017 0.0116726 0.0100707 0.0108039 0.00960698 0.0100707 0.00884017 0.00960698 0.00840775 0.00776202 0.00635572 0.00723695 0.00635524 0.010327 0.00932259 0.00942763 0.00864222 0.00932259 0.00834873 0.00864222 0.0078664 0.00942763 0.00864222 0.00875884 0.008144