# vtk DataFile Version 3.0
#This file was generated by the deal.II library on 2020/3/19 at 1:35:13
ASCII
DATASET UNSTRUCTURED_GRID

POINTS 4096 double
-1 -1 0
-0.9375 -1 0
-1 -0.9375 0
-0.9375 -0.9375 0
-0.9375 -1 0
-0.875 -1 0
-0.9375 -0.9375 0
-0.875 -0.9375 0
-1 -0.9375 0
-0.9375 -0.9375 0
-1 -0.875 0
-0.9375 -0.875 0
-0.9375 -0.9375 0
-0.875 -0.9375 0
-0.9375 -0.875 0
-0.875 -0.875 0
-0.875 -1 0
-0.8125 -1 0
-0.875 -0.9375 0
-0.8125 -0.9375 0
-0.8125 -1 0
-0.75 -1 0
-0.8125 -0.9375 0
-0.75 -0.9375 0
-0.875 -0.9375 0
-0.8125 -0.9375 0
-0.875 -0.875 0
-0.8125 -0.875 0
-0.8125 -0.9375 0
-0.75 -0.9375 0
-0.8125 -0.875 0
-0.75 -0.875 0
-1 -0.875 0
-0.9375 -0.875 0
-1 -0.8125 0
-0.9375 -0.8125 0
-0.9375 -0.875 0
-0.875 -0.875 0
-0.9375 -0.8125 0
-0.875 -0.8125 0
-1 -0.8125 0
-0.9375 -0.8125 0
-1 -0.75 0
-0.9375 -0.75 0
-0.9375 -0.8125 0
-0.875 -0.8125 0
-0.9375 -0.75 0
-0.875 -0.75 0
-0.875 -0.875 0
-0.8125 -0.875 0
-0.875 -0.8125 0
-0.8125 -0.8125 0
-0.8125 -0.875 0
-0.75 -0.875 0
-0.8125 -0.8125 0
-0.75 -0.8125 0
-0.875 -0.8125 0
-0.8125 -0.8125 0
-0.875 -0.75 0
-0.8125 -0.75 0
-0.8125 -0.8125 0
-0.75 -0.8125 0
-0.8125 -0.75 0
-0.75 -0.75 0
-0.75 -1 0
-0.6875 -1 0
-0.75 -0.9375 0
-0.6875 -0.9375 0
-0.6875 -1 0
-0.625 -1 0
-0.6875 -0.9375 0
-0.625 -0.9375 0
-0.75 -0.9375 0
-0.6875 -0.9375 0
-0.75 -0.875 0
-0.6875 -0.875 0
-0.6875 -0.9375 0
-0.625 -0.9375 0
-0.6875 -0.875 0
-0.625 -0.875 0
-0.625 -1 0
-0.5625 -1 0
-0.625 -0.9375 0
-0.5625 -0.9375 0
-0.5625 -1 0
-0.5 -1 0
-0.5625 -0.9375 0
-0.5 -0.9375 0
-0.625 -0.9375 0
-0.5625 -0.9375 0
-0.625 -0.875 0
-0.5625 -0.875 0
-0.5625 -0.9375 0
-0.5 -0.9375 0
-0.5625 -0.875 0
-0.5 -0.875 0
-0.75 -0.875 0
-0.6875 -0.875 0
-0.75 -0.8125 0
-0.6875 -0.8125 0
-0.6875 -0.875 0
-0.625 -0.875 0
-0.6875 -0.8125 0
-0.625 -0.8125 0
-0.75 -0.8125 0
-0.6875 -0.8125 0
-0.75 -0.75 0
-0.6875 -0.75 0
-0.6875 -0.8125 0
-0.625 -0.8125 0
-0.6875 -0.75 0
-0.625 -0.75 0
-0.625 -0.875 0
-0.5625 -0.875 0
-0.625 -0.8125 0
-0.5625 -0.8125 0
-0.5625 -0.875 0
-0.5 -0.875 0
-0.5625 -0.8125 0
-0.5 -0.8125 0
-0.625 -0.8125 0
-0.5625 -0.8125 0
-0.625 -0.75 0
-0.5625 -0.75 0
-0.5625 -0.8125 0
-0.5 -0.8125 0
-0.5625 -0.75 0
-0.5 -0.75 0
-1 -0.75 0
-0.9375 -0.75 0
-1 -0.6875 0
-0.9375 -0.6875 0
-0.9375 -0.75 0
-0.875 -0.75 0
-0.9375 -0.6875 0
-0.875 -0.6875 0
-1 -0.6875 0
-0.9375 -0.6875 0
-1 -0.625 0
-0.9375 -0.625 0
-0.9375 -0.6875 0
-0.875 -0.6875 0
-0.9375 -0.625 0
-0.875 -0.625 0
-0.875 -0.75 0
-0.8125 -0.75 0
-0.875 -0.6875 0
-0.8125 -0.6875 0
-0.8125 -0.75 0
-0.75 -0.75 0
-0.8125 -0.6875 0
-0.75 -0.6875 0
-0.875 -0.6875 0
-0.8125 -0.6875 0
-0.875 -0.625 0
-0.8125 -0.625 0
-0.8125 -0.6875 0
-0.75 -0.6875 0
-0.8125 -0.625 0
-0.75 -0.625 0
-1 -0.625 0
-0.9375 -0.625 0
-1 -0.5625 0
-0.9375 -0.5625 0
-0.9375 -0.625 0
-0.875 -0.625 0
-0.9375 -0.5625 0
-0.875 -0.5625 0
-1 -0.5625 0
-0.9375 -0.5625 0
-1 -0.5 0
-0.9375 -0.5 0
-0.9375 -0.5625 0
-0.875 -0.5625 0
-0.9375 -0.5 0
-0.875 -0.5 0
-0.875 -0.625 0
-0.8125 -0.625 0
-0.875 -0.5625 0
-0.8125 -0.5625 0
-0.8125 -0.625 0
-0.75 -0.625 0
-0.8125 -0.5625 0
-0.75 -0.5625 0
-0.875 -0.5625 0
-0.8125 -0.5625 0
-0.875 -0.5 0
-0.8125 -0.5 0
-0.8125 -0.5625 0
-0.75 -0.5625 0
-0.8125 -0.5 0
-0.75 -0.5 0
-0.75 -0.75 0
-0.6875 -0.75 0
-0.75 -0.6875 0
-0.6875 -0.6875 0
-0.6875 -0.75 0
-0.625 -0.75 0
-0.6875 -0.6875 0
-0.625 -0.6875 0
-0.75 -0.6875 0
-0.6875 -0.6875 0
-0.75 -0.625 0
-0.6875 -0.625 0
-0.6875 -0.6875 0
-0.625 -0.6875 0
-0.6875 -0.625 0
-0.625 -0.625 0
-0.625 -0.75 0
-0.5625 -0.75 0
-0.625 -0.6875 0
-0.5625 -0.6875 0
-0.5625 -0.75 0
-0.5 -0.75 0
-0.5625 -0.6875 0
-0.5 -0.6875 0
-0.625 -0.6875 0
-0.5625 -0.6875 0
-0.625 -0.625 0
-0.5625 -0.625 0
-0.5625 -0.6875 0
-0.5 -0.6875 0
-0.5625 -0.625 0
-0.5 -0.625 0
-0.75 -0.625 0
-0.6875 -0.625 0
-0.75 -0.5625 0
-0.6875 -0.5625 0
-0.6875 -0.625 0
-0.625 -0.625 0
-0.6875 -0.5625 0
-0.625 -0.5625 0
-0.75 -0.5625 0
-0.6875 -0.5625 0
-0.75 -0.5 0
-0.6875 -0.5 0
-0.6875 -0.5625 0
-0.625 -0.5625 0
-0.6875 -0.5 0
-0.625 -0.5 0
-0.625 -0.625 0
-0.5625 -0.625 0
-0.625 -0.5625 0
-0.5625 -0.5625 0
-0.5625 -0.625 0
-0.5 -0.625 0
-0.5625 -0.5625 0
-0.5 -0.5625 0
-0.625 -0.5625 0
-0.5625 -0.5625 0
-0.625 -0.5 0
-0.5625 -0.5 0
-0.5625 -0.5625 0
-0.5 -0.5625 0
-0.5625 -0.5 0
-0.5 -0.5 0
-0.5 -1 0
-0.4375 -1 0
-0.5 -0.9375 0
-0.4375 -0.9375 0
-0.4375 -1 0
-0.375 -1 0
-0.4375 -0.9375 0
-0.375 -0.9375 0
-0.5 -0.9375 0
-0.4375 -0.9375 0
-0.5 -0.875 0
-0.4375 -0.875 0
-0.4375 -0.9375 0
-0.375 -0.9375 0
-0.4375 -0.875 0
-0.375 -0.875 0
-0.375 -1 0
-0.3125 -1 0
-0.375 -0.9375 0
-0.3125 -0.9375 0
-0.3125 -1 0
-0.25 -1 0
-0.3125 -0.9375 0
-0.25 -0.9375 0
-0.375 -0.9375 0
-0.3125 -0.9375 0
-0.375 -0.875 0
-0.3125 -0.875 0
-0.3125 -0.9375 0
-0.25 -0.9375 0
-0.3125 -0.875 0
-0.25 -0.875 0
-0.5 -0.875 0
-0.4375 -0.875 0
-0.5 -0.8125 0
-0.4375 -0.8125 0
-0.4375 -0.875 0
-0.375 -0.875 0
-0.4375 -0.8125 0
-0.375 -0.8125 0
-0.5 -0.8125 0
-0.4375 -0.8125 0
-0.5 -0.75 0
-0.4375 -0.75 0
-0.4375 -0.8125 0
-0.375 -0.8125 0
-0.4375 -0.75 0
-0.375 -0.75 0
-0.375 -0.875 0
-0.3125 -0.875 0
-0.375 -0.8125 0
-0.3125 -0.8125 0
-0.3125 -0.875 0
-0.25 -0.875 0
-0.3125 -0.8125 0
-0.25 -0.8125 0
-0.375 -0.8125 0
-0.3125 -0.8125 0
-0.375 -0.75 0
-0.3125 -0.75 0
-0.3125 -0.8125 0
-0.25 -0.8125 0
-0.3125 -0.75 0
-0.25 -0.75 0
-0.25 -1 0
-0.1875 -1 0
-0.25 -0.9375 0
-0.1875 -0.9375 0
-0.1875 -1 0
-0.125 -1 0
-0.1875 -0.9375 0
-0.125 -0.9375 0
-0.25 -0.9375 0
-0.1875 -0.9375 0
-0.25 -0.875 0
-0.1875 -0.875 0
-0.1875 -0.9375 0
-0.125 -0.9375 0
-0.1875 -0.875 0
-0.125 -0.875 0
-0.125 -1 0
-0.0625 -1 0
-0.125 -0.9375 0
-0.0625 -0.9375 0
-0.0625 -1 0
0 -1 0
-0.0625 -0.9375 0
0 -0.9375 0
-0.125 -0.9375 0
-0.0625 -0.9375 0
-0.125 -0.875 0
-0.0625 -0.875 0
-0.0625 -0.9375 0
0 -0.9375 0
-0.0625 -0.875 0
0 -0.875 0
-0.25 -0.875 0
-0.1875 -0.875 0
-0.25 -0.8125 0
-0.1875 -0.8125 0
-0.1875 -0.875 0
-0.125 -0.875 0
-0.1875 -0.8125 0
-0.125 -0.8125 0
-0.25 -0.8125 0
-0.1875 -0.8125 0
-0.25 -0.75 0
-0.1875 -0.75 0
-0.1875 -0.8125 0
-0.125 -0.8125 0
-0.1875 -0.75 0
-0.125 -0.75 0
-0.125 -0.875 0
-0.0625 -0.875 0
-0.125 -0.8125 0
-0.0625 -0.8125 0
-0.0625 -0.875 0
0 -0.875 0
-0.0625 -0.8125 0
0 -0.8125 0
-0.125 -0.8125 0
-0.0625 -0.8125 0
-0.125 -0.75 0
-0.0625 -0.75 0
-0.0625 -0.8125 0
0 -0.8125 0
-0.0625 -0.75 0
0 -0.75 0
-0.5 -0.75 0
-0.4375 -0.75 0
-0.5 -0.6875 0
-0.4375 -0.6875 0
-0.4375 -0.75 0
-0.375 -0.75 0
-0.4375 -0.6875 0
-0.375 -0.6875 0
-0.5 -0.6875 0
-0.4375 -0.6875 0
-0.5 -0.625 0
-0.4375 -0.625 0
-0.4375 -0.6875 0
-0.375 -0.6875 0
-0.4375 -0.625 0
-0.375 -0.625 0
-0.375 -0.75 0
-0.3125 -0.75 0
-0.375 -0.6875 0
-0.3125 -0.6875 0
-0.3125 -0.75 0
-0.25 -0.75 0
-0.3125 -0.6875 0
-0.25 -0.6875 0
-0.375 -0.6875 0
-0.3125 -0.6875 0
-0.375 -0.625 0
-0.3125 -0.625 0
-0.3125 -0.6875 0
-0.25 -0.6875 0
-0.3125 -0.625 0
-0.25 -0.625 0
-0.5 -0.625 0
-0.4375 -0.625 0
-0.5 -0.5625 0
-0.4375 -0.5625 0
-0.4375 -0.625 0
-0.375 -0.625 0
-0.4375 -0.5625 0
-0.375 -0.5625 0
-0.5 -0.5625 0
-0.4375 -0.5625 0
-0.5 -0.5 0
-0.4375 -0.5 0
-0.4375 -0.5625 0
-0.375 -0.5625 0
-0.4375 -0.5 0
-0.375 -0.5 0
-0.375 -0.625 0
-0.3125 -0.625 0
-0.375 -0.5625 0
-0.3125 -0.5625 0
-0.3125 -0.625 0
-0.25 -0.625 0
-0.3125 -0.5625 0
-0.25 -0.5625 0
-0.375 -0.5625 0
-0.3125 -0.5625 0
-0.375 -0.5 0
-0.3125 -0.5 0
-0.3125 -0.5625 0
-0.25 -0.5625 0
-0.3125 -0.5 0
-0.25 -0.5 0
-0.25 -0.75 0
-0.1875 -0.75 0
-0.25 -0.6875 0
-0.1875 -0.6875 0
-0.1875 -0.75 0
-0.125 -0.75 0
-0.1875 -0.6875 0
-0.125 -0.6875 0
-0.25 -0.6875 0
-0.1875 -0.6875 0
-0.25 -0.625 0
-0.1875 -0.625 0
-0.1875 -0.6875 0
-0.125 -0.6875 0
-0.1875 -0.625 0
-0.125 -0.625 0
-0.125 -0.75 0
-0.0625 -0.75 0
-0.125 -0.6875 0
-0.0625 -0.6875 0
-0.0625 -0.75 0
0 -0.75 0
-0.0625 -0.6875 0
0 -0.6875 0
-0.125 -0.6875 0
-0.0625 -0.6875 0
-0.125 -0.625 0
-0.0625 -0.625 0
-0.0625 -0.6875 0
0 -0.6875 0
-0.0625 -0.625 0
0 -0.625 0
-0.25 -0.625 0
-0.1875 -0.625 0
-0.25 -0.5625 0
-0.1875 -0.5625 0
-0.1875 -0.625 0
-0.125 -0.625 0
-0.1875 -0.5625 0
-0.125 -0.5625 0
-0.25 -0.5625 0
-0.1875 -0.5625 0
-0.25 -0.5 0
-0.1875 -0.5 0
-0.1875 -0.5625 0
-0.125 -0.5625 0
-0.1875 -0.5 0
-0.125 -0.5 0
-0.125 -0.625 0
-0.0625 -0.625 0
-0.125 -0.5625 0
-0.0625 -0.5625 0
-0.0625 -0.625 0
0 -0.625 0
-0.0625 -0.5625 0
0 -0.5625 0
-0.125 -0.5625 0
-0.0625 -0.5625 0
-0.125 -0.5 0
-0.0625 -0.5 0
-0.0625 -0.5625 0
0 -0.5625 0
-0.0625 -0.5 0
0 -0.5 0
-1 -0.5 0
-0.9375 -0.5 0
-1 -0.4375 0
-0.9375 -0.4375 0
-0.9375 -0.5 0
-0.875 -0.5 0
-0.9375 -0.4375 0
-0.875 -0.4375 0
-1 -0.4375 0
-0.9375 -0.4375 0
-1 -0.375 0
-0.9375 -0.375 0
-0.9375 -0.4375 0
-0.875 -0.4375 0
-0.9375 -0.375 0
-0.875 -0.375 0
-0.875 -0.5 0
-0.8125 -0.5 0
-0.875 -0.4375 0
-0.8125 -0.4375 0
-0.8125 -0.5 0
-0.75 -0.5 0
-0.8125 -0.4375 0
-0.75 -0.4375 0
-0.875 -0.4375 0
-0.8125 -0.4375 0
-0.875 -0.375 0
-0.8125 -0.375 0
-0.8125 -0.4375 0
-0.75 -0.4375 0
-0.8125 -0.375 0
-0.75 -0.375 0
-1 -0.375 0
-0.9375 -0.375 0
-1 -0.3125 0
-0.9375 -0.3125 0
-0.9375 -0.375 0
-0.875 -0.375 0
-0.9375 -0.3125 0
-0.875 -0.3125 0
-1 -0.3125 0
-0.9375 -0.3125 0
-1 -0.25 0
-0.9375 -0.25 0
-0.9375 -0.3125 0
-0.875 -0.3125 0
-0.9375 -0.25 0
-0.875 -0.25 0
-0.875 -0.375 0
-0.8125 -0.375 0
-0.875 -0.3125 0
-0.8125 -0.3125 0
-0.8125 -0.375 0
-0.75 -0.375 0
-0.8125 -0.3125 0
-0.75 -0.3125 0
-0.875 -0.3125 0
-0.8125 -0.3125 0
-0.875 -0.25 0
-0.8125 -0.25 0
-0.8125 -0.3125 0
-0.75 -0.3125 0
-0.8125 -0.25 0
-0.75 -0.25 0
-0.75 -0.5 0
-0.6875 -0.5 0
-0.75 -0.4375 0
-0.6875 -0.4375 0
-0.6875 -0.5 0
-0.625 -0.5 0
-0.6875 -0.4375 0
-0.625 -0.4375 0
-0.75 -0.4375 0
-0.6875 -0.4375 0
-0.75 -0.375 0
-0.6875 -0.375 0
-0.6875 -0.4375 0
-0.625 -0.4375 0
-0.6875 -0.375 0
-0.625 -0.375 0
-0.625 -0.5 0
-0.5625 -0.5 0
-0.625 -0.4375 0
-0.5625 -0.4375 0
-0.5625 -0.5 0
-0.5 -0.5 0
-0.5625 -0.4375 0
-0.5 -0.4375 0
-0.625 -0.4375 0
-0.5625 -0.4375 0
-0.625 -0.375 0
-0.5625 -0.375 0
-0.5625 -0.4375 0
-0.5 -0.4375 0
-0.5625 -0.375 0
-0.5 -0.375 0
-0.75 -0.375 0
-0.6875 -0.375 0
-0.75 -0.3125 0
-0.6875 -0.3125 0
-0.6875 -0.375 0
-0.625 -0.375 0
-0.6875 -0.3125 0
[...]
POINT_DATA 4096
SCALARS x_displacement double 1
LOOKUP_TABLE default
0 0 0 9.70348e-05 0 0 9.70348e-05 0.000146368 0 9.70348e-05 0 7.24642e-05 9.70348e-05 0.000146368 7.24642e-05 0.000110603 0 0 0.000146368 0.000207434 0 0 0.000207434 0.00026546 0.000146368 0.000207434 0.000110603 0.000156868 0.000207434 0.00026546 0.000156868 0.000201096 0 7.24642e-05 0 7.86966e-05 7.24642e-05 0.000110603 7.86966e-05 0.000119348 0 7.86966e-05 0 7.71086e-05 7.86966e-05 0.000119348 7.71086e-05 0.000117201 0.000110603 0.000156868 0.000119348 0.000169209 0.000156868 0.000201096 0.000169209 0.000216714 0.000119348 0.000169209 0.000117201 0.000166183 0.000169209 0.000216714 0.000166183 0.000212908 0 0 0.00026546 0.000324897 0 0 0.000324897 0.000391543 0.00026546 0.000324897 0.000201096 0.000246328 0.000324897 0.000391543 0.000246328 0.000297071 0 0 0.000391543 0.00047549 0 0 0.00047549 0.000581736 0.000391543 0.00047549 0.000297071 0.000360936 0.00047549 0.000581736 0.000360936 0.000441716 0.000201096 0.000246328 0.000216714 0.000265342 0.000246328 0.000297071 0.000265342 0.000319878 0.000216714 0.000265342 0.000212908 0.000260721 0.000265342 0.000319878 0.000260721 0.00031435 0.000297071 0.000360936 0.000319878 0.000388547 0.000360936 0.000441716 0.000388547 0.000475431 0.000319878 0.000388547 0.00031435 0.000381866 0.000388547 0.000475431 0.000381866 0.000467285 0 7.71086e-05 0 7.75331e-05 7.71086e-05 0.000117201 7.75331e-05 0.00011776 0 7.75331e-05 0 7.73438e-05 7.75331e-05 0.00011776 7.73438e-05 0.000117485 0.000117201 0.000166183 0.00011776 0.000166973 0.000166183 0.000212908 0.000166973 0.000213897 0.00011776 0.000166973 0.000117485 0.000166577 0.000166973 0.000213897 0.000166577 0.000213391 0 7.73438e-05 0 7.77127e-05 7.73438e-05 0.000117485 7.77127e-05 0.000118116 0 7.77127e-05 0 7.63468e-05 7.77127e-05 0.000118116 7.63468e-05 0.000115657 0.000117485 0.000166577 0.000118116 0.000167504 0.000166577 0.000213391 0.000167504 0.000214603 0.000118116 0.000167504 0.000115657 0.000163872 0.000167504 0.000214603 0.000163872 0.000209824 0.000212908 0.000260721 0.000213897 0.00026192 0.000260721 0.00031435 0.00026192 0.00031578 0.000213897 0.00026192 0.000213391 0.0002613 0.00026192 0.00031578 0.0002613 0.000315044 0.00031435 0.000381866 0.00031578 0.000383588 0.000381866 0.000467285 0.000383588 0.000469368 0.00031578 0.000383588 0.000315044 0.000382715 0.000383588 0.000469368 0.000382715 0.000468366 0.000213391 0.0002613 0.000214603 0.000262802 0.0002613 0.000315044 0.000262802 0.00031683 0.000214603 0.000262802 0.000209824 0.000256863 0.000262802 0.00031683 0.000256863 0.000309752 0.000315044 0.000382715 0.00031683 0.00038481 0.000382715 0.000468366 0.00038481 0.000470669 0.00031683 0.00038481 0.000309752 0.000376517 0.00038481 0.000470669 0.000376517 0.000461587 0 0 0.000581736 0.0007103 0 0 0.0007103 0.000862729 0.000581736 0.0007103 0.000441716 0.000539488 0.0007103 0.000862729 0.000539488 0.000655267 0 0 0.000862729 0.0010257 0 0 0.0010257 0.0012235 0.000862729 0.0010257 0.000655267 0.000779301 0.0010257 0.0012235 0.000779301 0.00092944 0.000441716 0.000539488 0.000475431 0.000580576 0.000539488 0.000655267 0.000580576 0.000705167 0.000475431 0.000580576 0.000467285 0.000570665 0.000580576 0.000705167 0.000570665 0.000693137 0.000655267 0.000779301 0.000705167 0.000838503 0.000779301 0.00092944 0.000838503 0.00100012 0.000705167 0.000838503 0.000693137 0.000824251 0.000838503 0.00100012 0.000824251 0.000983104 0 0 0.0012235 0.00131016 0 0 0.00131016 0.000869845 0.0012235 0.00131016 0.00092944 0.000993785 0.00131016 0.000869845 0.000993785 0.000659862 0 0 0.000869845 6.91736e-06 0 0 6.91736e-06 -0.000905127 0.000869845 6.91736e-06 0.000659862 5.74443e-06 6.91736e-06 -0.000905127 5.74443e-06 -0.00068705 0.00092944 0.000993785 0.00100012 0.00107019 0.000993785 0.000659862 0.00107019 0.00071056 0.00100012 0.00107019 0.000983104 0.00105171 0.00107019 0.00071056 0.00105171 0.000698294 0.000659862 5.74443e-06 0.00071056 5.90769e-06 5.74443e-06 -0.00068705 5.90769e-06 -0.000739589 0.00071056 5.90769e-06 0.000698294 5.87278e-06 5.90769e-06 -0.000739589 5.87278e-06 -0.000726957 0.000467285 0.000570665 0.000469368 0.000573175 0.000570665 0.000693137 0.000573175 0.000696156 0.000469368 0.000573175 0.000468366 0.00057205 0.000573175 0.000696156 0.00057205 0.000694913 0.000693137 0.000824251 0.000696156 0.000827801 0.000824251 0.000983104 0.000827801 0.000987317 0.000696156 0.000827801 0.000694913 0.00082643 0.000827801 0.000987317 0.00082643 0.000985788 0.000468366 0.00057205 0.000470669 0.000574466 0.00057205 0.000694913 0.000574466 0.000697341 0.000470669 0.000574466 0.000461587 0.000565014 0.000574466 0.000697341 0.000565014 0.000687945 0.000694913 0.00082643 0.000697341 0.000828893 0.00082643 0.000985788 0.000828893 0.000988286 0.000697341 0.000828893 0.000687945 0.000819478 0.000828893 0.000988286 0.000819478 0.000978872 0.000983104 0.00105171 0.000987317 0.0010563 0.00105171 0.000698294 0.0010563 0.00070138 0.000987317 0.0010563 0.000985788 0.00105468 0.0010563 0.00070138 0.00105468 0.000700118 0.000698294 5.87278e-06 0.00070138 5.99814e-06 5.87278e-06 -0.000726957 5.99814e-06 -0.000729875 0.00070138 5.99814e-06 0.000700118 5.45299e-06 5.99814e-06 -0.000729875 5.45299e-06 -0.000729691 0.000985788 0.00105468 0.000988286 0.0010572 0.00105468 0.000700118 0.0010572 0.00070255 0.000988286 0.0010572 0.000978872 0.00104778 0.0010572 0.00070255 0.00104778 0.000693163 0.000700118 5.45299e-06 0.00070255 7.71448e-06 5.45299e-06 -0.000729691 7.71448e-06 -0.000727594 0.00070255 7.71448e-06 0.000693163 -1.64444e-06 7.71448e-06 -0.000727594 -1.64444e-06 -0.000736956 0 7.63468e-05 0 8.17488e-05 7.63468e-05 0.000115657 8.17488e-05 0.000125686 0 8.17488e-05 0 6.02614e-05 8.17488e-05 0.000125686 6.02614e-05 8.46644e-05 0.000115657 0.000163872 0.000125686 0.000178737 0.000163872 0.000209824 0.000178737 0.000229463 0.000125686 0.000178737 8.46644e-05 0.000117689 0.000178737 0.000229463 0.000117689 0.000148528 0 6.02614e-05 0 0.000145876 6.02614e-05 8.46644e-05 0.000145876 0.000252552 0 0.000145876 0 -0.000195737 0.000145876 0.000252552 -0.000195737 -0.000434848 8.46644e-05 0.000117689 0.000252552 0.000368599 0.000117689 0.000148528 0.000368599 0.000482254 0.000252552 0.000368599 -0.000434848 -0.000663253 0.000368599 0.000482254 -0.000663253 -0.000894349 0.000209824 0.000256863 0.000229463 0.000281311 0.000256863 0.000309752 0.000281311 0.000338943 0.000229463 0.000281311 0.000148528 0.000180397 0.000281311 0.000338943 0.000180397 0.000218249 0.000309752 0.000376517 0.000338943 0.000410709 0.000376517 0.000461587 0.000410709 0.000499054 0.000338943 0.000410709 0.000218249 0.000269358 0.000410709 0.000499054 0.000269358 0.000344046 0.000148528 0.000180397 0.000482254 0.000597146 0.000180397 0.000218249 0.000597146 0.000717472 0.000482254 0.000597146 -0.000894349 -0.00112453 0.000597146 0.000717472 -0.00112453 -0.00134799 0.000218249 0.000269358 0.000717472 0.000853956 0.000269358 0.000344046 0.000853956 0.000985567 0.000717472 0.000853956 -0.00134799 -0.00156449 0.000853956 0.000985567 -0.00156449 -0.00167002 0 -0.000195737 0 0.00116922 -0.000195737 -0.000434848 0.00116922 0.00238077 0 0.00116922 0 0.00466555 0.00116922 0.00238077 0.00466555 0.00951617 -0.000434848 -0.000663253 0.00238077 0.0035824 -0.000663253 -0.000894349 0.0035824 0.0047861 0.00238077 0.0035824 0.00951617 0.014322 0.0035824 0.0047861 0.014322 0.0191385 0 0.00466555 0 0.00501113 0.00466555 0.00951617 0.00501113 0.0102598 0 0.00501113 0 0.00500799 0.00501113 0.0102598 0.00500799 0.0102452 0.00951617 0.014322 0.0102598 0.0154509 0.014322 0.0191385 0.0154509 0.020657 0.0102598 0.0154509 0.0102452 0.015427 0.0154509 0.020657 0.015427 0.0206238 -0.000894349 -0.00112453 0.0047861 0.00599045 -0.00112453 -0.00134799 0.00599045 0.00719961 0.0047861 0.00599045 0.0191385 0.0239529 0.00599045 0.00719961 0.0239529 0.0286992 -0.00134799 -0.00156449 0.00719961 0.00844294 -0.00156449 -0.00167002 0.00844294 0.009325 0.00719961 0.00844294 0.0286992 0.0326081 0.00844294 0.009325 0.0326081 0.0355523 0.0191385 0.0239529 0.020657 0.0258549 0.0239529 0.0286992 0.0258549 0.0305818 0.020657 0.0258549 0.0206238 0.0258098 0.0258549 0.0305818 0.0258098 0.0305812 0.0286992 0.0326081 0.0305818 0.0344638 0.0326081 0.0355523 0.0344638 0.0375089 0.0305818 0.0344638 0.0305812 0.0344882 0.0344638 0.0375089 0.0344882 0.0375206 0.000461587 0.000565014 0.000499054 0.000603984 0.000565014 0.000687945 0.000603984 0.000726691 0.000499054 0.000603984 0.000344046 0.00044277 0.000603984 0.000726691 0.00044277 0.000566273 0.000687945 0.000819478 0.000726691 0.000858259 0.000819478 0.000978872 0.000858259 0.00101762 0.000726691 0.000858259 0.000566273 0.000697754 0.000858259 0.00101762 0.000697754 0.000857241 0.000344046 0.00044277 0.000985567 0.00110999 0.00044277 0.000566273 0.00110999 0.00123073 0.000985567 0.00110999 -0.00167002 -0.00165211 0.00110999 0.00123073 -0.00165211 -0.00152202 0.000566273 0.000697754 0.00123073 0.00136236 0.000697754 0.000857241 0.00136236 0.0015214 0.00123073 0.00136236 -0.00152202 -0.0013903 0.00136236 0.0015214 -0.0013903 -0.00122963 0.000978872 0.00104778 0.00101762 0.00108653 0.00104778 0.000693163 0.00108653 0.000731858 0.00101762 0.00108653 0.000857241 0.000926155 0.00108653 0.000731858 0.000926155 0.000571685 0.000693163 -1.64444e-06 0.000731858 3.70968e-05 -1.64444e-06 -0.000736956 3.70968e-05 -0.000698041 0.000731858 3.70968e-05 0.000571685 -0.000123308 3.70968e-05 -0.000698041 -0.000123308 -0.000859201 0.000857241 0.000926155 0.0015214 0.00159025 0.000926155 0.000571685 0.00159025 0.00123499 0.0015214 0.00159025 -0.00122963 -0.00116035 0.00159025 0.00123499 -0.00116035 -0.00151251 0.000571685 -0.000123308 0.00123499 0.000540973 -0.000123308 -0.000859201 0.000540973 -0.000191794 0.00123499 0.000540973 -0.00151251 -0.0022106 0.000540973 -0.000191794 -0.0022106 -0.00295626 -0.00167002 -0.00165211 0.009325 0.00978474 -0.00165211 -0.00152202 0.00978474 0.00988435 0.009325 0.00978474 0.0355523 0.0375298 0.00978474 0.00988435 0.0375298 0.0385439 -0.00152202 -0.0013903 0.00988435 0.0100131 -0.0013903 -0.00122963 0.0100131 0.0101678 0.00988435 0.0100131 0.0385439 0.0387149 0.0100131 0.0101678 0.0387149 0.0388411 0.0355523 0.0375298 0.0375089 0.039721 0.0375298 0.0385439 0.039721 0.0410973 0.0375089 0.039721 0.0375206 0.039681 0.039721 0.0410973 0.039681 0.0409668 0.0385439 0.0387149 0.0410973 0.0416245 0.0387149 0.0388411 0.0416245 0.0416974 0.0410973 0.0416245 0.0409668 0.0413883 0.0416245 0.0416974 0.0413883 0.0413945 -0.00122963 -0.00116035 0.0101678 0.0102347 -0.00116035 -0.00151251 0.0102347 0.00987037 0.0101678 0.0102347 0.0388411 0.0388693 0.0102347 0.00987037 0.0388693 0.0385396 -0.00151251 -0.0022106 0.00987037 0.00918924 -0.0022106 -0.00295626 0.00918924 0.00849677 0.00987037 0.00918924 0.0385396 0.0380252 0.00918924 0.00849677 0.0380252 0.0375408 0.0388411 0.0388693 0.0416974 0.0416936 0.0388693 0.0385396 0.0416936 0.0415096 0.0416974 0.0416936 0.0413945 0.041393 0.0416936 0.0415096 0.041393 0.0413933 0.0385396 0.0380252 0.0415096 0.0412608 0.0380252 0.0375408 0.0412608 0.0410277 0.0415096 0.0412608 0.0413933 0.0413933 0.0412608 0.0410277 0.0413933 0.0413933 0 0 -0.000905127 -0.00181717 0 0 -0.00181717 -0.00268011 -0.000905127 -0.00181717 -0.00068705 -0.00137984 -0.00181717 -0.00268011 -0.00137984 -0.00203397 0 0 -0.00268011 -0.00312035 0 0 -0.00312035 -0.00303398 -0.00268011 -0.00312035 -0.00203397 -0.00236784 -0.00312035 -0.00303398 -0.00236784 -0.00230371 -0.00068705 -0.00137984 -0.000739589 -0.00148508 -0.00137984 -0.00203397 -0.00148508 -0.00218975 -0.000739589 -0.00148508 -0.000726957 -0.00145978 -0.00148508 -0.00218975 -0.00145978 -0.00215222 -0.00203397 -0.00236784 -0.00218975 -0.00254933 -0.00236784 -0.00230371 -0.00254933 -0.00247948 -0.00218975 -0.00254933 -0.00215222 -0.00250558 -0.00254933 -0.00247948 -0.00250558 -0.0024372 0 0 -0.00303398 -0.00283504 0 0 -0.00283504 -0.00265618 -0.00303398 -0.00283504 -0.00230371 -0.00215267 -0.00283504 -0.00265618 -0.00215267 -0.00201651 0 0 -0.00265618 -0.00245329 0 0 -0.00245329 -0.00222985 -0.00265618 -0.00245329 -0.00201651 -0.00186238 -0.00245329 -0.00222985 -0.00186238 -0.00169255 -0.00230371 -0.00215267 -0.00247948 -0.00231691 -0.00215267 -0.00201651 -0.00231691 -0.00217056 -0.00247948 -0.00231691 -0.0024372 -0.00227741 -0.00231691 -0.00217056 -0.00227741 -0.00213348 -0.00201651 -0.00186238 -0.00217056 -0.00200471 -0.00186238 -0.00169255 -0.00200471 -0.00182202 -0.00217056 -0.00200471 -0.00213348 -0.00197046 -0.00200471 -0.00182202 -0.00197046 -0.00179084 -0.000726957 -0.00145978 -0.000729875 -0.00146574 -0.00145978 -0.00215222 -0.00146574 -0.00216114 -0.000729875 -0.00146574 -0.000729691 -0.00146483 -0.00146574 -0.00216114 -0.00146483 -0.00215951 -0.00215222 -0.00250558 -0.00216114 -0.00251601 -0.00250558 -0.0024372 -0.00251601 -0.00244725 -0.00216114 -0.00251601 -0.00215951 -0.00251401 -0.00251601 -0.00244725 -0.00251401 -0.00244535 -0.000729691 -0.00146483 -0.000727594 -0.0014629 -0.00146483 -0.00215951 -0.0014629 -0.00215775 -0.000727594 -0.0014629 -0.000736956 -0.00147226 -0.0014629 -0.00215775 -0.00147226 -0.00216708 -0.00215951 -0.00251401 -0.00215775 -0.00251234 -0.00251401 -0.00244535 -0.00251234 -0.00244366 -0.00215775 -0.00251234 -0.00216708 -0.00252164 -0.00251234 -0.00244366 -0.00252164 -0.00245296 -0.0024372 -0.00227741 -0.00244725 -0.00228679 -0.00227741 -0.00213348 -0.00228679 -0.00214229 -0.00244725 -0.00228679 -0.00244535 -0.00228505 -0.00228679 -0.00214229 -0.00228505 -0.00214069 -0.00213348 -0.00197046 -0.00214229 -0.00197858 -0.00197046 -0.00179084 -0.00197858 -0.00179824 -0.00214229 -0.00197858 -0.00214069 -0.00197715 -0.00197858 -0.00179824 -0.00197715 -0.00179696 -0.00244535 -0.00228505 -0.00244366 -0.00228332 -0.00228505 -0.00214069 -0.00228332 -0.00213893 -0.00244366 -0.00228332 -0.00245296 -0.00229264 -0.00228332 -0.00213893 -0.00229264 -0.00214823 -0.00214069 -0.00197715 -0.00213893 -0.00197533 -0.00197715 -0.00179696 -0.00197533 -0.00179519 -0.00213893 -0.00197533 -0.00214823 -0.0019847 -0.00197533 -0.00179519 -0.0019847 -0.0018042 0 0 -0.00222985 -0.00198328 0 0 -0.00198328 -0.00171461 -0.00222985 -0.00198328 -0.00169255 -0.00150517 -0.00198328 -0.00171461 -0.00150517 -0.00130102 0 0 -0.00171461 -0.00142858 0 0 -0.00142858 -0.00113541 -0.00171461 -0.00142858 -0.00130102 -0.0010837 -0.00142858 -0.00113541 -0.0010837 -0.000860923 -0.00169255 -0.00150517 -0.00182202 -0.00162044 -0.00150517 -0.00130102 -0.00162044 -0.00140079 -0.00182202 -0.00162044 -0.00179084 -0.00159267 -0.00162044 -0.00140079 -0.00159267 -0.00137674 -0.00130102 -0.0010837 -0.00140079 -0.00116697 -0.0010837 -0.000860923 -0.00116697 -0.000927291 -0.00140079 -0.00116697 -0.00137674 -0.00114688 -0.00116697 -0.000927291 -0.00114688 -0.000911254 0 0 -0.00113541 -0.000840599 0 0 -0.000840599 -0.000549735 -0.00113541 -0.000840599 -0.000860923 -0.000636927 -0.000840599 -0.000549735 -0.000636927 -0.000415874 0 0 -0.000549735 -0.000243439 0 0 -0.000243439 0 -0.000549735 -0.000243439 -0.000415874 -0.000182925 -0.000243439 0 -0.000182925 0 -0.000860923 -0.000636927 -0.000927291 -0.000686289 -0.000636927 -0.000415874 -0.000686289 -0.000448477 -0.000927291 -0.000686289 -0.000911254 -0.000674332 -0.000686289 -0.000448477 -0.000674332 -0.000440542 -0.000415874 -0.000182925 -0.000448477 -0.000197985 -0.000182925 0 -0.000197985 0 -0.000448477 -0.000197985 -0.000440542 -0.000194237 -0.000197985 0 -0.000194237 0 -0.00179084 -0.00159267 -0.00179824 -0.00159925 -0.00159267 -0.00137674 -0.00159925 -0.00138245 -0.00179824 -0.00159925 -0.00179696 -0.00159813 -0.00159925 -0.00138245 -0.00159813 -0.00138146 -0.00137674 -0.00114688 -0.00138245 -0.00115165 -0.00114688 -0.000911254 -0.00115165 -0.000915069 -0.00138245 -0.00115165 -0.00138146 -0.00115083 -0.00115165 -0.000915069 -0.00115083 -0.000914413 -0.00179696 -0.00159813 -0.00179519 -0.0015965 -0.00159813 -0.00138146 -0.0015965 -0.00138008 -0.00179519 -0.0015965 -0.0018042 -0.00160473 -0.0015965 -0.00138008 -0.00160473 -0.00138711 -0.00138146 -0.00115083 -0.00138008 -0.00114966 -0.00115083 -0.000914413 -0.00114966 -0.000913475 -0.00138008 -0.00114966 -0.00138711 -0.00115556 -0.00114966 -0.000913475 -0.00115556 -0.000918216 -0.000911254 -0.000674332 -0.000915069 -0.000677183 -0.000674332 -0.000440542 -0.000677183 -0.000442442 -0.000915069 -0.000677183 -0.000914413 -0.000676696 -0.000677183 -0.000442442 -0.000676696 -0.000442118 -0.000440542 -0.000194237 -0.000442442 -0.000195152 -0.000194237 0 -0.000195152 0 -0.000442442 -0.000195152 -0.000442118 -0.000195005 -0.000195152 0 -0.000195005 0 -0.000914413 -0.000676696 -0.000913475 -0.000675978 -0.000676696 -0.000442118 -0.000675978 -0.000441629 -0.000913475 -0.000675978 -0.000918216 -0.00067958 -0.000675978 -0.000441629 -0.00067958 -0.000444068 -0.000442118 -0.000195005 -0.000441629 -0.000194719 -0.000195005 0 -0.000194719 0 -0.000441629 -0.000194719 -0.000444068 -0.000196072 -0.000194719 0 -0.000196072 0 -0.000736956 -0.00147226 -0.000698041 -0.00143317 -0.00147226 -0.00216708 -0.00143317 -0.00212795 -0.000698041 -0.00143317 -0.000859201 -0.00159509 -0.00143317 -0.00212795 -0.00159509 -0.0022901 -0.00216708 -0.00252164 -0.00212795 -0.00248256 -0.00252164 -0.00245296 -0.00248256 -0.00241389 -0.00212795 -0.00248256 -0.0022901 -0.00264452 -0.00248256 -0.00241389 -0.00264452 -0.00257581 -0.000859201 -0.00159509 -0.000191794 -0.000924555 -0.00159509 -0.0022901 -0.000924555 -0.00161859 -0.000191794 -0.000924555 -0.00295626 -0.00370193 -0.000924555 -0.00161859 -0.00370193 -0.00440001 -0.0022901 -0.00264452 -0.00161859 -0.00197378 -0.00264452 -0.00257581 -0.00197378 -0.00190521 -0.00161859 -0.00197378 -0.00440001 -0.00475216 -0.00197378 -0.00190521 -0.00475216 -0.00468297 -0.00245296 -0.00229264 -0.00241389 -0.00225356 -0.00229264 -0.00214823 -0.00225356 -0.00210922 -0.00241389 -0.00225356 -0.00257581 -0.00241545 -0.00225356 -0.00210922 -0.00241545 -0.00227091 -0.00214823 -0.0019847 -0.00210922 -0.00194549 -0.0019847 -0.0018042 -0.00194549 -0.00176652 -0.00210922 -0.00194549 -0.00227091 -0.00210785 -0.00194549 -0.00176652 -0.00210785 -0.00192254 -0.00257581 -0.00241545 -0.00190521 -0.00174503 -0.00241545 -0.00227091 -0.00174503 -0.00160114 -0.00190521 -0.00174503 -0.00468297 -0.00452187 -0.00174503 -0.00160114 -0.00452187 -0.00437595 -0.00227091 -0.00210785 -0.00160114 -0.00143586 -0.00210785 -0.00192254 -0.00143586 -0.00127678 -0.00160114 -0.00143586 -0.00437595 -0.00421778 -0.00143586 -0.00127678 -0.00421778 -0.00394999 -0.00295626 -0.00370193 0.00849677 0.00780431 -0.00370193 -0.00440001 0.00780431 0.00712315 0.00849677 0.00780431 0.0375408 0.0370563 0.00780431 0.00712315 0.0370563 0.0365419 -0.00440001 -0.00475216 0.00712315 0.00675894 -0.00475216 -0.00468297 0.00675894 0.00682536 0.00712315 0.00675894 0.0365419 0.0362123 0.00675894 0.00682536 0.0362123 0.0362403 0.0375408 0.0370563 0.0410277 0.0407945 0.0370563 0.0365419 0.0407945 0.0405458 0.0410277 0.0407945 0.0413933 0.0413933 0.0407945 0.0405458 0.0413933 0.0413933 0.0365419 0.0362123 0.0405458 0.0403614 0.0362123 0.0362403 0.0403614 0.0403595 0.0405458 0.0403614 0.0413933 0.041393 0.0403614 0.0403595 0.041393 0.0413945 -0.00468297 -0.00452187 0.00682536 0.00698204 -0.00452187 -0.00437595 0.00698204 0.00712207 0.00682536 0.00698204 0.0362403 0.0363672 0.00698204 0.00712207 0.0363672 0.0364017 -0.00437595 -0.00421778 0.00712207 0.00730142 -0.00421778 -0.00394999 0.00730142 0.0071182 0.00712207 0.00730142 0.0364017 0.0356045 0.00730142 0.0071182 0.0356045 0.0338413 0.0362403 0.0363672 0.0403595 0.0404246 0.0363672 0.0364017 0.0404246 0.0400005 0.0403595 0.0404246 0.0413945 0.0413883 0.0404246 0.0400005 0.0413883 0.0409668 0.0364017 0.0356045 0.0400005 0.0387358 0.0356045 0.0338413 0.0387358 0.0366332 0.0400005 0.0387358 0.0409668 0.039681 0.0387358 0.0366332 0.039681 0.0375206 -0.0018042 -0.00160473 -0.00176652 -0.00157035 -0.00160473 -0.00138711 -0.00157035 -0.00135775 -0.00176652 -0.00157035 -0.00192254 -0.00171259 -0.0015