# vtk DataFile Version 3.0
#This file was generated by the deal.II library on 2020/3/17 at 13:08:18
ASCII
DATASET UNSTRUCTURED_GRID

POINTS 280 double
-1 -1 0
-0.5 -1 0
-1 -0.5 0
-0.5 -0.5 0
-0.5 -1 0
0 -1 0
-0.5 -0.5 0
0 -0.5 0
0 -1 0
0.5 -1 0
0 -0.5 0
0.5 -0.5 0
0.5 -1 0
1 -1 0
0.5 -0.5 0
1 -0.5 0
-1 0.5 0
-0.5 0.5 0
-1 1 0
-0.5 1 0
-0.5 0.5 0
0 0.5 0
-0.5 1 0
0 1 0
0 0.5 0
0.5 0.5 0
0 1 0
0.5 1 0
0.5 0.5 0
1 0.5 0
0.5 1 0
1 1 0
-1 -0.5 0
-0.75 -0.5 0
-1 -0.25 0
-0.75 -0.25 0
-0.75 -0.5 0
-0.5 -0.5 0
-0.75 -0.25 0
-0.5 -0.25 0
-1 -0.25 0
-0.75 -0.25 0
-1 0 0
-0.75 0 0
-0.5 -0.5 0
-0.25 -0.5 0
-0.5 -0.25 0
-0.25 -0.25 0
-0.25 -0.5 0
0 -0.5 0
-0.25 -0.25 0
0 -0.25 0
0 -0.5 0
0.25 -0.5 0
0 -0.25 0
0.25 -0.25 0
0.25 -0.5 0
0.5 -0.5 0
0.25 -0.25 0
0.5 -0.25 0
-0.5 0.25 0
-0.25 0.25 0
-0.5 0.5 0
-0.25 0.5 0
-0.25 0.25 0
0 0.25 0
-0.25 0.5 0
0 0.5 0
0 0.25 0
0.25 0.25 0
0 0.5 0
0.25 0.5 0
0.25 0.25 0
0.5 0.25 0
0.25 0.5 0
0.5 0.5 0
0.75 0 0
1 0 0
0.75 0.25 0
1 0.25 0
0.5 0.25 0
0.75 0.25 0
0.5 0.5 0
0.75 0.5 0
0.75 0.25 0
1 0.25 0
0.75 0.5 0
1 0.5 0
0.5 -0.5 0
0.75 -0.5 0
0.5 -0.25 0
0.75 -0.25 0
0.75 -0.5 0
1 -0.5 0
0.75 -0.25 0
1 -0.25 0
0.5 -0.25 0
0.75 -0.25 0
0.5 0 0
0.75 0 0
0.75 -0.25 0
1 -0.25 0
0.75 0 0
1 0 0
-1 0 0
-0.75 0 0
-1 0.25 0
-0.75 0.25 0
-0.75 0 0
-0.5 0 0
-0.75 0.25 0
-0.5 0.25 0
-1 0.25 0
-0.75 0.25 0
-1 0.5 0
-0.75 0.5 0
-0.75 0.25 0
-0.5 0.25 0
-0.75 0.5 0
-0.5 0.5 0
-0.75 -0.25 0
-0.625 -0.25 0
-0.75 -0.125 0
-0.625 -0.125 0
-0.625 -0.25 0
-0.5 -0.25 0
-0.625 -0.125 0
-0.5 -0.125 0
-0.75 -0.125 0
-0.625 -0.125 0
-0.75 0 0
-0.625 0 0
-0.625 -0.125 0
-0.5 -0.125 0
-0.625 0 0
-0.5 0 0
-0.5 -0.25 0
-0.375 -0.25 0
-0.5 -0.125 0
-0.375 -0.125 0
-0.375 -0.25 0
-0.25 -0.25 0
-0.375 -0.125 0
-0.25 -0.125 0
-0.5 -0.125 0
-0.375 -0.125 0
-0.5 0 0
-0.375 0 0
-0.375 -0.125 0
-0.25 -0.125 0
-0.375 0 0
-0.25 0 0
-0.25 -0.25 0
-0.125 -0.25 0
-0.25 -0.125 0
-0.125 -0.125 0
-0.125 -0.25 0
0 -0.25 0
-0.125 -0.125 0
0 -0.125 0
-0.25 -0.125 0
-0.125 -0.125 0
-0.25 0 0
-0.125 0 0
-0.125 -0.125 0
0 -0.125 0
-0.125 0 0
0 0 0
0 -0.25 0
0.125 -0.25 0
0 -0.125 0
0.125 -0.125 0
0.125 -0.25 0
0.25 -0.25 0
0.125 -0.125 0
0.25 -0.125 0
0 -0.125 0
0.125 -0.125 0
0 0 0
0.125 0 0
0.125 -0.125 0
0.25 -0.125 0
0.125 0 0
0.25 0 0
0.25 -0.25 0
0.375 -0.25 0
0.25 -0.125 0
0.375 -0.125 0
0.375 -0.25 0
0.5 -0.25 0
0.375 -0.125 0
0.5 -0.125 0
0.25 -0.125 0
0.375 -0.125 0
0.25 0 0
0.375 0 0
0.375 -0.125 0
0.5 -0.125 0
0.375 0 0
0.5 0 0
-0.5 0 0
-0.375 0 0
-0.5 0.125 0
-0.375 0.125 0
-0.375 0 0
-0.25 0 0
-0.375 0.125 0
-0.25 0.125 0
-0.5 0.125 0
-0.375 0.125 0
-0.5 0.25 0
-0.375 0.25 0
-0.375 0.125 0
-0.25 0.125 0
-0.375 0.25 0
-0.25 0.25 0
-0.25 0 0
-0.125 0 0
-0.25 0.125 0
-0.125 0.125 0
-0.125 0 0
0 0 0
-0.125 0.125 0
0 0.125 0
-0.25 0.125 0
-0.125 0.125 0
-0.25 0.25 0
-0.125 0.25 0
-0.125 0.125 0
0 0.125 0
-0.125 0.25 0
0 0.25 0
0 0 0
0.125 0 0
0 0.125 0
0.125 0.125 0
0.125 0 0
0.25 0 0
0.125 0.125 0
0.25 0.125 0
0 0.125 0
0.125 0.125 0
0 0.25 0
0.125 0.25 0
0.125 0.125 0
0.25 0.125 0
0.125 0.25 0
0.25 0.25 0
0.25 0 0
0.375 0 0
0.25 0.125 0
0.375 0.125 0
0.375 0 0
0.5 0 0
0.375 0.125 0
0.5 0.125 0
0.25 0.125 0
0.375 0.125 0
0.25 0.25 0
0.375 0.25 0
0.375 0.125 0
0.5 0.125 0
0.375 0.25 0
0.5 0.25 0
0.5 0 0
0.625 0 0
0.5 0.125 0
0.625 0.125 0
0.625 0 0
0.75 0 0
0.625 0.125 0
0.75 0.125 0
0.5 0.125 0
0.625 0.125 0
0.5 0.25 0
0.625 0.25 0
0.625 0.125 0
0.75 0.125 0
0.625 0.25 0
0.75 0.25 0

CELLS 70 350
4	0	1	3	2
4	4	5	7	6
4	8	9	11	10
4	12	13	15	14
4	16	17	19	18
4	20	21	23	22
4	24	25	27	26
4	28	29	31	30
4	32	33	35	34
4	36	37	39	38
4	40	41	43	42
4	44	45	47	46
4	48	49	51	50
4	52	53	55	54
4	56	57	59	58
4	60	61	63	62
4	64	65	67	66
4	68	69	71	70
4	72	73	75	74
4	76	77	79	78
4	80	81	83	82
4	84	85	87	86
4	88	89	91	90
4	92	93	95	94
4	96	97	99	98
4	100	101	103	102
4	104	105	107	106
4	108	109	111	110
4	112	113	115	114
4	116	117	119	118
4	120	121	123	122
4	124	125	127	126
4	128	129	131	130
4	132	133	135	134
4	136	137	139	138
4	140	141	143	142
4	144	145	147	146
4	148	149	151	150
4	152	153	155	154
4	156	157	159	158
4	160	161	163	162
4	164	165	167	166
4	168	169	171	170
4	172	173	175	174
4	176	177	179	178
4	180	181	183	182
4	184	185	187	186
4	188	189	191	190
4	192	193	195	194
4	196	197	199	198
4	200	201	203	202
4	204	205	207	206
4	208	209	211	210
4	212	213	215	214
4	216	217	219	218
4	220	221	223	222
4	224	225	227	226
4	228	229	231	230
4	232	233	235	234
4	236	237	239	238
4	240	241	243	242
4	244	245	247	246
4	248	249	251	250
4	252	253	255	254
4	256	257	259	258
4	260	261	263	262
4	264	265	267	266
4	268	269	271	270
4	272	273	275	274
4	276	277	279	278

CELL_TYPES 70
 9 9 9 9 9 9 9 9 9 9 9 9 9 9 9 9 9 9 9 9 9 9 9 9 9 9 9 9 9 9 9 9 9 9 9 9 9 9 9 9 9 9 9 9 9 9 9 9 9 9 9 9 9 9 9 9 9 9 9 9 9 9 9 9 9 9 9 9 9 9
POINT_DATA 280
SCALARS x_displacement double 1
LOOKUP_TABLE default
0 0 0 0.00466937 0 0 0.00466937 0.00456218 0 0 0.00456218 0.00126279 0 0 0.00126279 0 0 0.00126279 0 0 0.00126279 0.00456218 0 0 0.00456218 0.00466937 0 0 0.00466937 0 0 0 0 0.00464355 0 0.00514624 0.00464355 0.00466937 0.00514624 0.0109308 0 0.00514624 0 0.00672613 0.00466937 0.00822868 0.0109308 0.0117789 0.00822868 0.00456218 0.0117789 0.0102884 0.00456218 0.00301959 0.0102884 0.00777401 0.00301959 0.00126279 0.00777401 0.00613383 0.00613383 0.00777401 0.00126279 0.00301959 0.00777401 0.0102884 0.00301959 0.00456218 0.0102884 0.0117789 0.00456218 0.00822868 0.0117789 0.0109308 0.00822868 0.00466937 0.00672613 0 0.00514624 0 0.0109308 0.00514624 0.00466937 0.00464355 0.00514624 0 0.00464355 0 0.00126279 0.000853532 0.00613383 0.00322198 0.000853532 0 0.00322198 0 0.00613383 0.00322198 0.0159376 0.00672613 0.00322198 0 0.00672613 0 0 0.00672613 0 0.00322198 0.00672613 0.0159376 0.00322198 0.00613383 0 0.00322198 0 0.000853532 0.00322198 0.00613383 0.000853532 0.00126279 0.00514624 0.0117446 0.015021 0.0146268 0.0117446 0.0109308 0.0146268 0.0167711 0.015021 0.0146268 0.00672613 0.014359 0.0146268 0.0167711 0.014359 0.0159376 0.0109308 0.0143511 0.0167711 0.0161799 0.0143511 0.0117789 0.0161799 0.0153103 0.0167711 0.0161799 0.0159376 0.0171652 0.0161799 0.0153103 0.0171652 0.0151192 0.0117789 0.0136606 0.0153103 0.0137409 0.0136606 0.0102884 0.0137409 0.012723 0.0153103 0.0137409 0.0151192 0.0138491 0.0137409 0.012723 0.0138491 0.0132952 0.0102884 0.00923706 0.012723 0.011819 0.00923706 0.00777401 0.011819 0.0126163 0.012723 0.011819 0.0132952 0.0138491 0.011819 0.0126163 0.0138491 0.0151192 0.00777401 0.00824259 0.0126163 0.0139641 0.00824259 0.00613383 0.0139641 0.0154843 0.0126163 0.0139641 0.0151192 0.0171652 0.0139641 0.0154843 0.0171652 0.0159376 0.0159376 0.0171652 0.0154843 0.0139641 0.0171652 0.0151192 0.0139641 0.0126163 0.0154843 0.0139641 0.00613383 0.00824259 0.0139641 0.0126163 0.00824259 0.00777401 0.0151192 0.0138491 0.0126163 0.011819 0.0138491 0.0132952 0.011819 0.012723 0.0126163 0.011819 0.00777401 0.00923706 0.011819 0.012723 0.00923706 0.0102884 0.0132952 0.0138491 0.012723 0.0137409 0.0138491 0.0151192 0.0137409 0.0153103 0.012723 0.0137409 0.0102884 0.0136606 0.0137409 0.0153103 0.0136606 0.0117789 0.0151192 0.0171652 0.0153103 0.0161799 0.0171652 0.0159376 0.0161799 0.0167711 0.0153103 0.0161799 0.0117789 0.0143511 0.0161799 0.0167711 0.0143511 0.0109308 0.0159376 0.014359 0.0167711 0.0146268 0.014359 0.00672613 0.0146268 0.015021 0.0167711 0.0146268 0.0109308 0.0117446 0.0146268 0.015021 0.0117446 0.00514624 
SCALARS y_displacement double 1
LOOKUP_TABLE default
0 0 0 0.00354062 0 0 0.00354062 0.00575213 0 0 0.00575213 0.00150688 0 0 0.00150688 0 0 0.00150688 0 0 0.00150688 0.00575213 0 0 0.00575213 0.00354062 0 0 0.00354062 0 0 0 0 0.00604915 0 0.00441758 0.00604915 0.00354062 0.00441758 0.00583973 0 0.00441758 0 0.00116843 0.00354062 0.0104133 0.00583973 0.00988723 0.0104133 0.00575213 0.00988723 0.0139004 0.00575213 0.00982867 0.0139004 0.0107048 0.00982867 0.00150688 0.0107048 0.00358293 0.00358293 0.0107048 0.00150688 0.00982867 0.0107048 0.0139004 0.00982867 0.00575213 0.0139004 0.00988723 0.00575213 0.0104133 0.00988723 0.00583973 0.0104133 0.00354062 0.00116843 0 0.00441758 0 0.00583973 0.00441758 0.00354062 0.00604915 0.00441758 0 0.00604915 0 0.00150688 -0.000633753 0.00358293 -0.000456342 -0.000633753 0 -0.000456342 0 0.00358293 -0.000456342 0.00630326 0.00116843 -0.000456342 0 0.00116843 0 0 0.00116843 0 -0.000456342 0.00116843 0.00630326 -0.000456342 0.00358293 0 -0.000456342 0 -0.000633754 -0.000456342 0.00358293 -0.000633754 0.00150688 0.00441758 0.00567446 0.00429526 0.00525796 0.00567446 0.00583973 0.00525796 0.00650943 0.00429526 0.00525796 0.00116843 0.00519228 0.00525796 0.00650943 0.00519228 0.00630326 0.00583973 0.00879409 0.00650943 0.00858971 0.00879409 0.00988723 0.00858971 0.0122199 0.00650943 0.00858971 0.00630326 0.00883114 0.00858971 0.0122199 0.00883114 0.013239 0.00988723 0.0174645 0.0122199 0.0178807 0.0174645 0.0139004 0.0178807 0.0200805 0.0122199 0.0178807 0.013239 0.0193159 0.0178807 0.0200805 0.0193159 0.0214078 0.0139004 0.0186906 0.0200805 0.0187345 0.0186906 0.0107048 0.0187345 0.0133343 0.0200805 0.0187345 0.0214078 0.0193159 0.0187345 0.0133343 0.0193159 0.013239 0.0107048 0.00996277 0.0133343 0.00918855 0.00996277 0.00358293 0.00918855 0.00496635 0.0133343 0.00918855 0.013239 0.00883114 0.00918855 0.00496635 0.00883114 0.00630326 0.00630326 0.00883114 0.00496635 0.00918855 0.00883114 0.013239 0.00918855 0.0133343 0.00496635 0.00918855 0.00358293 0.00996277 0.00918855 0.0133343 0.00996277 0.0107048 0.013239 0.0193159 0.0133343 0.0187345 0.0193159 0.0214078 0.0187345 0.0200805 0.0133343 0.0187345 0.0107048 0.0186906 0.0187345 0.0200805 0.0186906 0.0139004 0.0214078 0.0193159 0.0200805 0.0178807 0.0193159 0.013239 0.0178807 0.0122199 0.0200805 0.0178807 0.0139004 0.0174645 0.0178807 0.0122199 0.0174645 0.00988723 0.013239 0.00883114 0.0122199 0.00858971 0.00883114 0.00630326 0.00858971 0.00650943 0.0122199 0.00858971 0.00988723 0.00879409 0.00858971 0.00650943 0.00879409 0.00583973 0.00630326 0.00519228 0.00650943 0.00525796 0.00519228 0.00116843 0.00525796 0.00429526 0.00650943 0.00525796 0.00583973 0.00567446 0.00525796 0.00429526 0.00567446 0.00441758 
