# vtk DataFile Version 3.0
#This file was generated by the deal.II library on 2020/3/17 at 13:08:18
ASCII
DATASET UNSTRUCTURED_GRID

POINTS 136 double
-1 -1 0
-0.5 -1 0
-1 -0.5 0
-0.5 -0.5 0
-0.5 -1 0
0 -1 0
-0.5 -0.5 0
0 -0.5 0
0 -1 0
0.5 -1 0
0 -0.5 0
0.5 -0.5 0
0.5 -1 0
1 -1 0
0.5 -0.5 0
1 -0.5 0
0.5 -0.5 0
1 -0.5 0
0.5 0 0
1 0 0
-1 0 0
-0.5 0 0
-1 0.5 0
-0.5 0.5 0
-1 0.5 0
-0.5 0.5 0
-1 1 0
-0.5 1 0
-0.5 0.5 0
0 0.5 0
-0.5 1 0
0 1 0
0 0.5 0
0.5 0.5 0
0 1 0
0.5 1 0
0.5 0.5 0
1 0.5 0
0.5 1 0
1 1 0
-1 -0.5 0
-0.75 -0.5 0
-1 -0.25 0
-0.75 -0.25 0
-0.75 -0.5 0
-0.5 -0.5 0
-0.75 -0.25 0
-0.5 -0.25 0
-1 -0.25 0
-0.75 -0.25 0
-1 0 0
-0.75 0 0
-0.75 -0.25 0
-0.5 -0.25 0
-0.75 0 0
-0.5 0 0
-0.5 -0.5 0
-0.25 -0.5 0
-0.5 -0.25 0
-0.25 -0.25 0
-0.25 -0.5 0
0 -0.5 0
-0.25 -0.25 0
0 -0.25 0
-0.5 -0.25 0
-0.25 -0.25 0
-0.5 0 0
-0.25 0 0
-0.25 -0.25 0
0 -0.25 0
-0.25 0 0
0 0 0
0 -0.5 0
0.25 -0.5 0
0 -0.25 0
0.25 -0.25 0
0.25 -0.5 0
0.5 -0.5 0
0.25 -0.25 0
0.5 -0.25 0
0 -0.25 0
0.25 -0.25 0
0 0 0
0.25 0 0
0.25 -0.25 0
0.5 -0.25 0
0.25 0 0
0.5 0 0
-0.5 0 0
-0.25 0 0
-0.5 0.25 0
-0.25 0.25 0
-0.25 0 0
0 0 0
-0.25 0.25 0
0 0.25 0
-0.5 0.25 0
-0.25 0.25 0
-0.5 0.5 0
-0.25 0.5 0
-0.25 0.25 0
0 0.25 0
-0.25 0.5 0
0 0.5 0
0 0 0
0.25 0 0
0 0.25 0
0.25 0.25 0
0.25 0 0
0.5 0 0
0.25 0.25 0
0.5 0.25 0
0 0.25 0
0.25 0.25 0
0 0.5 0
0.25 0.5 0
0.25 0.25 0
0.5 0.25 0
0.25 0.5 0
0.5 0.5 0
0.5 0 0
0.75 0 0
0.5 0.25 0
0.75 0.25 0
0.75 0 0
1 0 0
0.75 0.25 0
1 0.25 0
0.5 0.25 0
0.75 0.25 0
0.5 0.5 0
0.75 0.5 0
0.75 0.25 0
1 0.25 0
0.75 0.5 0
1 0.5 0

CELLS 34 170
4	0	1	3	2
4	4	5	7	6
4	8	9	11	10
4	12	13	15	14
4	16	17	19	18
4	20	21	23	22
4	24	25	27	26
4	28	29	31	30
4	32	33	35	34
4	36	37	39	38
4	40	41	43	42
4	44	45	47	46
4	48	49	51	50
4	52	53	55	54
4	56	57	59	58
4	60	61	63	62
4	64	65	67	66
4	68	69	71	70
4	72	73	75	74
4	76	77	79	78
4	80	81	83	82
4	84	85	87	86
4	88	89	91	90
4	92	93	95	94
4	96	97	99	98
4	100	101	103	102
4	104	105	107	106
4	108	109	111	110
4	112	113	115	114
4	116	117	119	118
4	120	121	123	122
4	124	125	127	126
4	128	129	131	130
4	132	133	135	134

CELL_TYPES 34
 9 9 9 9 9 9 9 9 9 9 9 9 9 9 9 9 9 9 9 9 9 9 9 9 9 9 9 9 9 9 9 9 9 9
POINT_DATA 136
SCALARS x_displacement double 1
LOOKUP_TABLE default
0 0 0 0.00277238 0 0 0.00277238 0.00337256 0 0 0.00337256 0.00184146 0 0 0.00184146 0 0.00184146 0 0.0126907 0 0 0.0126907 0 0.00184146 0 0.00184146 0 0 0.00184146 0.00337256 0 0 0.00337256 0.00277238 0 0 0.00277238 0 0 0 0 0.00245699 0 0.00345118 0.00245699 0.00277238 0.00345118 0.0058485 0 0.00345118 0 0.00497379 0.00345118 0.0058485 0.00497379 0.0126907 0.00277238 0.00489137 0.0058485 0.00717161 0.00489137 0.00337256 0.00717161 0.00698987 0.0058485 0.00717161 0.0126907 0.00978368 0.00717161 0.00698987 0.00978368 0.00846992 0.00337256 0.00340529 0.00698987 0.00645475 0.00340529 0.00184146 0.00645475 0.00701438 0.00698987 0.00645475 0.00846992 0.00978368 0.00645475 0.00701438 0.00978368 0.0126907 0.0126907 0.00978368 0.00701438 0.00645475 0.00978368 0.00846992 0.00645475 0.00698987 0.00701438 0.00645475 0.00184146 0.00340529 0.00645475 0.00698987 0.00340529 0.00337256 0.00846992 0.00978368 0.00698987 0.00717161 0.00978368 0.0126907 0.00717161 0.0058485 0.00698987 0.00717161 0.00337256 0.00489137 0.00717161 0.0058485 0.00489137 0.00277238 0.0126907 0.00497379 0.0058485 0.00345118 0.00497379 0 0.00345118 0 0.0058485 0.00345118 0.00277238 0.00245699 0.00345118 0 0.00245699 0 
SCALARS y_displacement double 1
LOOKUP_TABLE default
0 0 0 0.0018048 0 0 0.0018048 0.00274908 0 0 0.00274908 0.000465193 0 0 0.000465193 0 0.000465193 0 0.00269123 0 0 0.00269123 0 0.000465193 0 0.000465193 0 0 0.000465193 0.00274908 0 0 0.00274908 0.0018048 0 0 0.0018048 0 0 0 0 0.00345748 0 0.00276346 0.00345748 0.0018048 0.00276346 0.00298611 0 0.00276346 0 0.00120889 0.00276346 0.00298611 0.00120889 0.00269123 0.0018048 0.00492628 0.00298611 0.00420254 0.00492628 0.00274908 0.00420254 0.00649512 0.00298611 0.00420254 0.00269123 0.0047575 0.00420254 0.00649512 0.0047575 0.00994647 0.00274908 0.0050459 0.00649512 0.00515047 0.0050459 0.000465193 0.00515047 0.00159747 0.00649512 0.00515047 0.00994647 0.0047575 0.00515047 0.00159747 0.0047575 0.00269123 0.00269123 0.0047575 0.00159747 0.00515047 0.0047575 0.00994647 0.00515047 0.00649512 0.00159747 0.00515047 0.000465193 0.0050459 0.00515047 0.00649512 0.0050459 0.00274908 0.00994647 0.0047575 0.00649512 0.00420254 0.0047575 0.00269123 0.00420254 0.00298611 0.00649512 0.00420254 0.00274908 0.00492628 0.00420254 0.00298611 0.00492628 0.0018048 0.00269123 0.00120889 0.00298611 0.00276346 0.00120889 0 0.00276346 0 0.00298611 0.00276346 0.0018048 0.00345748 0.00276346 0 0.00345748 0 
