# vtk DataFile Version 3.0
#This file was generated by the deal.II library on 2020/3/19 at 1:35:13
ASCII
DATASET UNSTRUCTURED_GRID

POINTS 4096 double
-1 -1 0
-0.9375 -1 0
-1 -0.9375 0
-0.9375 -0.9375 0
-0.9375 -1 0
-0.875 -1 0
-0.9375 -0.9375 0
-0.875 -0.9375 0
-1 -0.9375 0
-0.9375 -0.9375 0
-1 -0.875 0
-0.9375 -0.875 0
-0.9375 -0.9375 0
-0.875 -0.9375 0
-0.9375 -0.875 0
-0.875 -0.875 0
-0.875 -1 0
-0.8125 -1 0
-0.875 -0.9375 0
-0.8125 -0.9375 0
-0.8125 -1 0
-0.75 -1 0
-0.8125 -0.9375 0
-0.75 -0.9375 0
-0.875 -0.9375 0
-0.8125 -0.9375 0
-0.875 -0.875 0
-0.8125 -0.875 0
-0.8125 -0.9375 0
-0.75 -0.9375 0
-0.8125 -0.875 0
-0.75 -0.875 0
-1 -0.875 0
-0.9375 -0.875 0
-1 -0.8125 0
-0.9375 -0.8125 0
-0.9375 -0.875 0
-0.875 -0.875 0
-0.9375 -0.8125 0
-0.875 -0.8125 0
-1 -0.8125 0
-0.9375 -0.8125 0
-1 -0.75 0
-0.9375 -0.75 0
-0.9375 -0.8125 0
-0.875 -0.8125 0
-0.9375 -0.75 0
-0.875 -0.75 0
-0.875 -0.875 0
-0.8125 -0.875 0
-0.875 -0.8125 0
-0.8125 -0.8125 0
-0.8125 -0.875 0
-0.75 -0.875 0
-0.8125 -0.8125 0
-0.75 -0.8125 0
-0.875 -0.8125 0
-0.8125 -0.8125 0
-0.875 -0.75 0
-0.8125 -0.75 0
-0.8125 -0.8125 0
-0.75 -0.8125 0
-0.8125 -0.75 0
-0.75 -0.75 0
-0.75 -1 0
-0.6875 -1 0
-0.75 -0.9375 0
-0.6875 -0.9375 0
-0.6875 -1 0
-0.625 -1 0
-0.6875 -0.9375 0
-0.625 -0.9375 0
-0.75 -0.9375 0
-0.6875 -0.9375 0
-0.75 -0.875 0
-0.6875 -0.875 0
-0.6875 -0.9375 0
-0.625 -0.9375 0
-0.6875 -0.875 0
-0.625 -0.875 0
-0.625 -1 0
-0.5625 -1 0
-0.625 -0.9375 0
-0.5625 -0.9375 0
-0.5625 -1 0
-0.5 -1 0
-0.5625 -0.9375 0
-0.5 -0.9375 0
-0.625 -0.9375 0
-0.5625 -0.9375 0
-0.625 -0.875 0
-0.5625 -0.875 0
-0.5625 -0.9375 0
-0.5 -0.9375 0
-0.5625 -0.875 0
-0.5 -0.875 0
-0.75 -0.875 0
-0.6875 -0.875 0
-0.75 -0.8125 0
-0.6875 -0.8125 0
-0.6875 -0.875 0
-0.625 -0.875 0
-0.6875 -0.8125 0
-0.625 -0.8125 0
-0.75 -0.8125 0
-0.6875 -0.8125 0
-0.75 -0.75 0
-0.6875 -0.75 0
-0.6875 -0.8125 0
-0.625 -0.8125 0
-0.6875 -0.75 0
-0.625 -0.75 0
-0.625 -0.875 0
-0.5625 -0.875 0
-0.625 -0.8125 0
-0.5625 -0.8125 0
-0.5625 -0.875 0
-0.5 -0.875 0
-0.5625 -0.8125 0
-0.5 -0.8125 0
-0.625 -0.8125 0
-0.5625 -0.8125 0
-0.625 -0.75 0
-0.5625 -0.75 0
-0.5625 -0.8125 0
-0.5 -0.8125 0
-0.5625 -0.75 0
-0.5 -0.75 0
-1 -0.75 0
-0.9375 -0.75 0
-1 -0.6875 0
-0.9375 -0.6875 0
-0.9375 -0.75 0
-0.875 -0.75 0
-0.9375 -0.6875 0
-0.875 -0.6875 0
-1 -0.6875 0
-0.9375 -0.6875 0
-1 -0.625 0
-0.9375 -0.625 0
-0.9375 -0.6875 0
-0.875 -0.6875 0
-0.9375 -0.625 0
-0.875 -0.625 0
-0.875 -0.75 0
-0.8125 -0.75 0
-0.875 -0.6875 0
-0.8125 -0.6875 0
-0.8125 -0.75 0
-0.75 -0.75 0
-0.8125 -0.6875 0
-0.75 -0.6875 0
-0.875 -0.6875 0
-0.8125 -0.6875 0
-0.875 -0.625 0
-0.8125 -0.625 0
-0.8125 -0.6875 0
-0.75 -0.6875 0
-0.8125 -0.625 0
-0.75 -0.625 0
-1 -0.625 0
-0.9375 -0.625 0
-1 -0.5625 0
-0.9375 -0.5625 0
-0.9375 -0.625 0
-0.875 -0.625 0
-0.9375 -0.5625 0
-0.875 -0.5625 0
-1 -0.5625 0
-0.9375 -0.5625 0
-1 -0.5 0
-0.9375 -0.5 0
-0.9375 -0.5625 0
-0.875 -0.5625 0
-0.9375 -0.5 0
-0.875 -0.5 0
-0.875 -0.625 0
-0.8125 -0.625 0
-0.875 -0.5625 0
-0.8125 -0.5625 0
-0.8125 -0.625 0
-0.75 -0.625 0
-0.8125 -0.5625 0
-0.75 -0.5625 0
-0.875 -0.5625 0
-0.8125 -0.5625 0
-0.875 -0.5 0
-0.8125 -0.5 0
-0.8125 -0.5625 0
-0.75 -0.5625 0
-0.8125 -0.5 0
-0.75 -0.5 0
-0.75 -0.75 0
-0.6875 -0.75 0
-0.75 -0.6875 0
-0.6875 -0.6875 0
-0.6875 -0.75 0
-0.625 -0.75 0
-0.6875 -0.6875 0
-0.625 -0.6875 0
-0.75 -0.6875 0
-0.6875 -0.6875 0
-0.75 -0.625 0
-0.6875 -0.625 0
-0.6875 -0.6875 0
-0.625 -0.6875 0
-0.6875 -0.625 0
-0.625 -0.625 0
-0.625 -0.75 0
-0.5625 -0.75 0
-0.625 -0.6875 0
-0.5625 -0.6875 0
-0.5625 -0.75 0
-0.5 -0.75 0
-0.5625 -0.6875 0
-0.5 -0.6875 0
-0.625 -0.6875 0
-0.5625 -0.6875 0
-0.625 -0.625 0
-0.5625 -0.625 0
-0.5625 -0.6875 0
-0.5 -0.6875 0
-0.5625 -0.625 0
-0.5 -0.625 0
-0.75 -0.625 0
-0.6875 -0.625 0
-0.75 -0.5625 0
-0.6875 -0.5625 0
-0.6875 -0.625 0
-0.625 -0.625 0
-0.6875 -0.5625 0
-0.625 -0.5625 0
-0.75 -0.5625 0
-0.6875 -0.5625 0
-0.75 -0.5 0
-0.6875 -0.5 0
-0.6875 -0.5625 0
-0.625 -0.5625 0
-0.6875 -0.5 0
-0.625 -0.5 0
-0.625 -0.625 0
-0.5625 -0.625 0
-0.625 -0.5625 0
-0.5625 -0.5625 0
-0.5625 -0.625 0
-0.5 -0.625 0
-0.5625 -0.5625 0
-0.5 -0.5625 0
-0.625 -0.5625 0
-0.5625 -0.5625 0
-0.625 -0.5 0
-0.5625 -0.5 0
-0.5625 -0.5625 0
-0.5 -0.5625 0
-0.5625 -0.5 0
-0.5 -0.5 0
-0.5 -1 0
-0.4375 -1 0
-0.5 -0.9375 0
-0.4375 -0.9375 0
-0.4375 -1 0
-0.375 -1 0
-0.4375 -0.9375 0
-0.375 -0.9375 0
-0.5 -0.9375 0
-0.4375 -0.9375 0
-0.5 -0.875 0
-0.4375 -0.875 0
-0.4375 -0.9375 0
-0.375 -0.9375 0
-0.4375 -0.875 0
-0.375 -0.875 0
-0.375 -1 0
-0.3125 -1 0
-0.375 -0.9375 0
-0.3125 -0.9375 0
-0.3125 -1 0
-0.25 -1 0
-0.3125 -0.9375 0
-0.25 -0.9375 0
-0.375 -0.9375 0
-0.3125 -0.9375 0
-0.375 -0.875 0
-0.3125 -0.875 0
-0.3125 -0.9375 0
-0.25 -0.9375 0
-0.3125 -0.875 0
-0.25 -0.875 0
-0.5 -0.875 0
-0.4375 -0.875 0
-0.5 -0.8125 0
-0.4375 -0.8125 0
-0.4375 -0.875 0
-0.375 -0.875 0
-0.4375 -0.8125 0
-0.375 -0.8125 0
-0.5 -0.8125 0
-0.4375 -0.8125 0
-0.5 -0.75 0
-0.4375 -0.75 0
-0.4375 -0.8125 0
-0.375 -0.8125 0
-0.4375 -0.75 0
-0.375 -0.75 0
-0.375 -0.875 0
-0.3125 -0.875 0
-0.375 -0.8125 0
-0.3125 -0.8125 0
-0.3125 -0.875 0
-0.25 -0.875 0
-0.3125 -0.8125 0
-0.25 -0.8125 0
-0.375 -0.8125 0
-0.3125 -0.8125 0
-0.375 -0.75 0
-0.3125 -0.75 0
-0.3125 -0.8125 0
-0.25 -0.8125 0
-0.3125 -0.75 0
-0.25 -0.75 0
-0.25 -1 0
-0.1875 -1 0
-0.25 -0.9375 0
-0.1875 -0.9375 0
-0.1875 -1 0
-0.125 -1 0
-0.1875 -0.9375 0
-0.125 -0.9375 0
-0.25 -0.9375 0
-0.1875 -0.9375 0
-0.25 -0.875 0
-0.1875 -0.875 0
-0.1875 -0.9375 0
-0.125 -0.9375 0
-0.1875 -0.875 0
-0.125 -0.875 0
-0.125 -1 0
-0.0625 -1 0
-0.125 -0.9375 0
-0.0625 -0.9375 0
-0.0625 -1 0
0 -1 0
-0.0625 -0.9375 0
0 -0.9375 0
-0.125 -0.9375 0
-0.0625 -0.9375 0
-0.125 -0.875 0
-0.0625 -0.875 0
-0.0625 -0.9375 0
0 -0.9375 0
-0.0625 -0.875 0
0 -0.875 0
-0.25 -0.875 0
-0.1875 -0.875 0
-0.25 -0.8125 0
-0.1875 -0.8125 0
-0.1875 -0.875 0
-0.125 -0.875 0
-0.1875 -0.8125 0
-0.125 -0.8125 0
-0.25 -0.8125 0
-0.1875 -0.8125 0
-0.25 -0.75 0
-0.1875 -0.75 0
-0.1875 -0.8125 0
-0.125 -0.8125 0
-0.1875 -0.75 0
-0.125 -0.75 0
-0.125 -0.875 0
-0.0625 -0.875 0
-0.125 -0.8125 0
-0.0625 -0.8125 0
-0.0625 -0.875 0
0 -0.875 0
-0.0625 -0.8125 0
0 -0.8125 0
-0.125 -0.8125 0
-0.0625 -0.8125 0
-0.125 -0.75 0
-0.0625 -0.75 0
-0.0625 -0.8125 0
0 -0.8125 0
-0.0625 -0.75 0
0 -0.75 0
-0.5 -0.75 0
-0.4375 -0.75 0
-0.5 -0.6875 0
-0.4375 -0.6875 0
-0.4375 -0.75 0
-0.375 -0.75 0
-0.4375 -0.6875 0
-0.375 -0.6875 0
-0.5 -0.6875 0
-0.4375 -0.6875 0
-0.5 -0.625 0
-0.4375 -0.625 0
-0.4375 -0.6875 0
-0.375 -0.6875 0
-0.4375 -0.625 0
-0.375 -0.625 0
-0.375 -0.75 0
-0.3125 -0.75 0
-0.375 -0.6875 0
-0.3125 -0.6875 0
-0.3125 -0.75 0
-0.25 -0.75 0
-0.3125 -0.6875 0
-0.25 -0.6875 0
-0.375 -0.6875 0
-0.3125 -0.6875 0
-0.375 -0.625 0
-0.3125 -0.625 0
-0.3125 -0.6875 0
-0.25 -0.6875 0
-0.3125 -0.625 0
-0.25 -0.625 0
-0.5 -0.625 0
-0.4375 -0.625 0
-0.5 -0.5625 0
-0.4375 -0.5625 0
-0.4375 -0.625 0
-0.375 -0.625 0
-0.4375 -0.5625 0
-0.375 -0.5625 0
-0.5 -0.5625 0
-0.4375 -0.5625 0
-0.5 -0.5 0
-0.4375 -0.5 0
-0.4375 -0.5625 0
-0.375 -0.5625 0
-0.4375 -0.5 0
-0.375 -0.5 0
-0.375 -0.625 0
-0.3125 -0.625 0
-0.375 -0.5625 0
-0.3125 -0.5625 0
-0.3125 -0.625 0
-0.25 -0.625 0
-0.3125 -0.5625 0
-0.25 -0.5625 0
-0.375 -0.5625 0
-0.3125 -0.5625 0
-0.375 -0.5 0
-0.3125 -0.5 0
-0.3125 -0.5625 0
-0.25 -0.5625 0
-0.3125 -0.5 0
-0.25 -0.5 0
-0.25 -0.75 0
-0.1875 -0.75 0
-0.25 -0.6875 0
-0.1875 -0.6875 0
-0.1875 -0.75 0
-0.125 -0.75 0
-0.1875 -0.6875 0
-0.125 -0.6875 0
-0.25 -0.6875 0
-0.1875 -0.6875 0
-0.25 -0.625 0
-0.1875 -0.625 0
-0.1875 -0.6875 0
-0.125 -0.6875 0
-0.1875 -0.625 0
-0.125 -0.625 0
-0.125 -0.75 0
-0.0625 -0.75 0
-0.125 -0.6875 0
-0.0625 -0.6875 0
-0.0625 -0.75 0
0 -0.75 0
-0.0625 -0.6875 0
0 -0.6875 0
-0.125 -0.6875 0
-0.0625 -0.6875 0
-0.125 -0.625 0
-0.0625 -0.625 0
-0.0625 -0.6875 0
0 -0.6875 0
-0.0625 -0.625 0
0 -0.625 0
-0.25 -0.625 0
-0.1875 -0.625 0
-0.25 -0.5625 0
-0.1875 -0.5625 0
-0.1875 -0.625 0
-0.125 -0.625 0
-0.1875 -0.5625 0
-0.125 -0.5625 0
-0.25 -0.5625 0
-0.1875 -0.5625 0
-0.25 -0.5 0
-0.1875 -0.5 0
-0.1875 -0.5625 0
-0.125 -0.5625 0
-0.1875 -0.5 0
-0.125 -0.5 0
-0.125 -0.625 0
-0.0625 -0.625 0
-0.125 -0.5625 0
-0.0625 -0.5625 0
-0.0625 -0.625 0
0 -0.625 0
-0.0625 -0.5625 0
0 -0.5625 0
-0.125 -0.5625 0
-0.0625 -0.5625 0
-0.125 -0.5 0
-0.0625 -0.5 0
-0.0625 -0.5625 0
0 -0.5625 0
-0.0625 -0.5 0
0 -0.5 0
-1 -0.5 0
-0.9375 -0.5 0
-1 -0.4375 0
-0.9375 -0.4375 0
-0.9375 -0.5 0
-0.875 -0.5 0
-0.9375 -0.4375 0
-0.875 -0.4375 0
-1 -0.4375 0
-0.9375 -0.4375 0
-1 -0.375 0
-0.9375 -0.375 0
-0.9375 -0.4375 0
-0.875 -0.4375 0
-0.9375 -0.375 0
-0.875 -0.375 0
-0.875 -0.5 0
-0.8125 -0.5 0
-0.875 -0.4375 0
-0.8125 -0.4375 0
-0.8125 -0.5 0
-0.75 -0.5 0
-0.8125 -0.4375 0
-0.75 -0.4375 0
-0.875 -0.4375 0
-0.8125 -0.4375 0
-0.875 -0.375 0
-0.8125 -0.375 0
-0.8125 -0.4375 0
-0.75 -0.4375 0
-0.8125 -0.375 0
-0.75 -0.375 0
-1 -0.375 0
-0.9375 -0.375 0
-1 -0.3125 0
-0.9375 -0.3125 0
-0.9375 -0.375 0
-0.875 -0.375 0
-0.9375 -0.3125 0
-0.875 -0.3125 0
-1 -0.3125 0
-0.9375 -0.3125 0
-1 -0.25 0
-0.9375 -0.25 0
-0.9375 -0.3125 0
-0.875 -0.3125 0
-0.9375 -0.25 0
-0.875 -0.25 0
-0.875 -0.375 0
-0.8125 -0.375 0
-0.875 -0.3125 0
-0.8125 -0.3125 0
-0.8125 -0.375 0
-0.75 -0.375 0
-0.8125 -0.3125 0
-0.75 -0.3125 0
-0.875 -0.3125 0
-0.8125 -0.3125 0
-0.875 -0.25 0
-0.8125 -0.25 0
-0.8125 -0.3125 0
-0.75 -0.3125 0
-0.8125 -0.25 0
-0.75 -0.25 0
-0.75 -0.5 0
-0.6875 -0.5 0
-0.75 -0.4375 0
-0.6875 -0.4375 0
-0.6875 -0.5 0
-0.625 -0.5 0
-0.6875 -0.4375 0
-0.625 -0.4375 0
-0.75 -0.4375 0
-0.6875 -0.4375 0
-0.75 -0.375 0
-0.6875 -0.375 0
-0.6875 -0.4375 0
-0.625 -0.4375 0
-0.6875 -0.375 0
-0.625 -0.375 0
-0.625 -0.5 0
-0.5625 -0.5 0
-0.625 -0.4375 0
-0.5625 -0.4375 0
-0.5625 -0.5 0
-0.5 -0.5 0
-0.5625 -0.4375 0
-0.5 -0.4375 0
-0.625 -0.4375 0
-0.5625 -0.4375 0
-0.625 -0.375 0
-0.5625 -0.375 0
-0.5625 -0.4375 0
-0.5 -0.4375 0
-0.5625 -0.375 0
-0.5 -0.375 0
-0.75 -0.375 0
-0.6875 -0.375 0
-0.75 -0.3125 0
-0.6875 -0.3125 0
-0.6875 -0.375 0
-0.625 -0.375 0
-0.6875 -0.3125 0
[...]
POINT_DATA 4096
SCALARS x_displacement double 1
LOOKUP_TABLE default
0 0 0 0.00012938 0 0 0.00012938 0.000195157 0 0.00012938 0 9.66189e-05 0.00012938 0.000195157 9.66189e-05 0.00014747 0 0 0.000195157 0.000276579 0 0 0.000276579 0.000353947 0.000195157 0.000276579 0.00014747 0.000209158 0.000276579 0.000353947 0.000209158 0.000268128 0 9.66189e-05 0 0.000104929 9.66189e-05 0.00014747 0.000104929 0.000159131 0 0.000104929 0 0.000102811 0.000104929 0.000159131 0.000102811 0.000156268 0.00014747 0.000209158 0.000159131 0.000225613 0.000209158 0.000268128 0.000225613 0.000288952 0.000159131 0.000225613 0.000156268 0.000221578 0.000225613 0.000288952 0.000221578 0.000283878 0 0 0.000353947 0.000433197 0 0 0.000433197 0.000522057 0.000353947 0.000433197 0.000268128 0.000328437 0.000433197 0.000522057 0.000328437 0.000396095 0 0 0.000522057 0.000633987 0 0 0.000633987 0.000775648 0.000522057 0.000633987 0.000396095 0.000481248 0.000633987 0.000775648 0.000481248 0.000588954 0.000268128 0.000328437 0.000288952 0.000353789 0.000328437 0.000396095 0.000353789 0.000426505 0.000288952 0.000353789 0.000283878 0.000347627 0.000353789 0.000426505 0.000347627 0.000419133 0.000396095 0.000481248 0.000426505 0.000518062 0.000481248 0.000588954 0.000518062 0.000633907 0.000426505 0.000518062 0.000419133 0.000509155 0.000518062 0.000633907 0.000509155 0.000623047 0 0.000102811 0 0.000103377 0.000102811 0.000156268 0.000103377 0.000157014 0 0.000103377 0 0.000103125 0.000103377 0.000157014 0.000103125 0.000156647 0.000156268 0.000221578 0.000157014 0.000222631 0.000221578 0.000283878 0.000222631 0.000285196 0.000157014 0.000222631 0.000156647 0.000222102 0.000222631 0.000285196 0.000222102 0.000284522 0 0.000103125 0 0.000103617 0.000103125 0.000156647 0.000103617 0.000157489 0 0.000103617 0 0.000101796 0.000103617 0.000157489 0.000101796 0.000154209 0.000156647 0.000222102 0.000157489 0.000223338 0.000222102 0.000284522 0.000223338 0.000286138 0.000157489 0.000223338 0.000154209 0.000218497 0.000223338 0.000286138 0.000218497 0.000279766 0.000283878 0.000347627 0.000285196 0.000349226 0.000347627 0.000419133 0.000349226 0.00042104 0.000285196 0.000349226 0.000284522 0.0003484 0.000349226 0.00042104 0.0003484 0.000420058 0.000419133 0.000509155 0.00042104 0.00051145 0.000509155 0.000623047 0.00051145 0.000625824 0.00042104 0.00051145 0.000420058 0.000510286 0.00051145 0.000625824 0.000510286 0.000624488 0.000284522 0.0003484 0.000286138 0.000350403 0.0003484 0.000420058 0.000350403 0.000422441 0.000286138 0.000350403 0.000279766 0.000342483 0.000350403 0.000422441 0.000342483 0.000413002 0.000420058 0.000510286 0.000422441 0.00051308 0.000510286 0.000624488 0.00051308 0.000627559 0.000422441 0.00051308 0.000413002 0.000502023 0.00051308 0.000627559 0.000502023 0.000615449 0 0 0.000775648 0.000947067 0 0 0.000947067 0.00115031 0.000775648 0.000947067 0.000588954 0.000719318 0.000947067 0.00115031 0.000719318 0.000873689 0 0 0.00115031 0.0013676 0 0 0.0013676 0.00163133 0.00115031 0.0013676 0.000873689 0.00103907 0.0013676 0.00163133 0.00103907 0.00123925 0.000588954 0.000719318 0.000633907 0.000774101 0.000719318 0.000873689 0.000774101 0.000940223 0.000633907 0.000774101 0.000623047 0.000760886 0.000774101 0.000940223 0.000760886 0.000924183 0.000873689 0.00103907 0.000940223 0.001118 0.00103907 0.00123925 0.001118 0.00133349 0.000940223 0.001118 0.000924183 0.001099 0.001118 0.00133349 0.001099 0.00131081 0 0 0.00163133 0.00174688 0 0 0.00174688 0.00115979 0.00163133 0.00174688 0.00123925 0.00132505 0.00174688 0.00115979 0.00132505 0.000879817 0 0 0.00115979 9.22315e-06 0 0 9.22315e-06 -0.00120684 0.00115979 9.22315e-06 0.000879817 7.65924e-06 9.22315e-06 -0.00120684 7.65924e-06 -0.000916066 0.00123925 0.00132505 0.00133349 0.00142693 0.00132505 0.000879817 0.00142693 0.000947413 0.00133349 0.00142693 0.00131081 0.00140228 0.00142693 0.000947413 0.00140228 0.000931058 0.000879817 7.65924e-06 0.000947413 7.87692e-06 7.65924e-06 -0.000916066 7.87692e-06 -0.000986118 0.000947413 7.87692e-06 0.000931058 7.83037e-06 7.87692e-06 -0.000986118 7.83037e-06 -0.000969275 0.000623047 0.000760886 0.000625824 0.000764233 0.000760886 0.000924183 0.000764233 0.000928208 0.000625824 0.000764233 0.000624488 0.000762734 0.000764233 0.000928208 0.000762734 0.000926551 0.000924183 0.001099 0.000928208 0.00110373 0.001099 0.00131081 0.00110373 0.00131642 0.000928208 0.00110373 0.000926551 0.00110191 0.00110373 0.00131642 0.00110191 0.00131438 0.000624488 0.000762734 0.000627559 0.000765955 0.000762734 0.000926551 0.000765955 0.000929788 0.000627559 0.000765955 0.000615449 0.000753353 0.000765955 0.000929788 0.000753353 0.00091726 0.000926551 0.00110191 0.000929788 0.00110519 0.00110191 0.00131438 0.00110519 0.00131771 0.000929788 0.00110519 0.00091726 0.00109264 0.00110519 0.00131771 0.00109264 0.00130516 0.00131081 0.00140228 0.00131642 0.0014084 0.00140228 0.000931058 0.0014084 0.000935173 0.00131642 0.0014084 0.00131438 0.00140624 0.0014084 0.000935173 0.00140624 0.000933491 0.000931058 7.83037e-06 0.000935173 7.99752e-06 7.83037e-06 -0.000969275 7.99752e-06 -0.000973166 0.000935173 7.99752e-06 0.000933491 7.27066e-06 7.99752e-06 -0.000973166 7.27066e-06 -0.000972921 0.00131438 0.00140624 0.00131771 0.0014096 0.00140624 0.000933491 0.0014096 0.000936734 0.00131771 0.0014096 0.00130516 0.00139704 0.0014096 0.000936734 0.00139704 0.000924217 0.000933491 7.27066e-06 0.000936734 1.0286e-05 7.27066e-06 -0.000972921 1.0286e-05 -0.000970126 0.000936734 1.0286e-05 0.000924217 -2.19259e-06 1.0286e-05 -0.000970126 -2.19259e-06 -0.000982608 0 0.000101796 0 0.000108998 0.000101796 0.000154209 0.000108998 0.000167581 0 0.000108998 0 8.03486e-05 0.000108998 0.000167581 8.03486e-05 0.000112886 0.000154209 0.000218497 0.000167581 0.000238316 0.000218497 0.000279766 0.000238316 0.000305951 0.000167581 0.000238316 0.000112886 0.000156919 0.000238316 0.000305951 0.000156919 0.000198037 0 8.03486e-05 0 0.000194502 8.03486e-05 0.000112886 0.000194502 0.000336735 0 0.000194502 0 -0.000260983 0.000194502 0.000336735 -0.000260983 -0.000579798 0.000112886 0.000156919 0.000336735 0.000491466 0.000156919 0.000198037 0.000491466 0.000643005 0.000336735 0.000491466 -0.000579798 -0.000884337 0.000491466 0.000643005 -0.000884337 -0.00119247 0.000279766 0.000342483 0.000305951 0.000375082 0.000342483 0.000413002 0.000375082 0.000451924 0.000305951 0.000375082 0.000198037 0.000240529 0.000375082 0.000451924 0.000240529 0.000290998 0.000413002 0.000502023 0.000451924 0.000547612 0.000502023 0.000615449 0.000547612 0.000665406 0.000451924 0.000547612 0.000290998 0.000359144 0.000547612 0.000665406 0.000359144 0.000458728 0.000198037 0.000240529 0.000643005 0.000796194 0.000240529 0.000290998 0.000796194 0.000956629 0.000643005 0.000796194 -0.00119247 -0.00149938 0.000796194 0.000956629 -0.00149938 -0.00179732 0.000290998 0.000359144 0.000956629 0.00113861 0.000359144 0.000458728 0.00113861 0.00131409 0.000956629 0.00113861 -0.00179732 -0.00208598 0.00113861 0.00131409 -0.00208598 -0.0022267 0 -0.000260983 0 0.00155896 -0.000260983 -0.000579798 0.00155896 0.00317436 0 0.00155896 0 0.00622074 0.00155896 0.00317436 0.00622074 0.0126882 -0.000579798 -0.000884337 0.00317436 0.00477654 -0.000884337 -0.00119247 0.00477654 0.00638146 0.00317436 0.00477654 0.0126882 0.019096 0.00477654 0.00638146 0.019096 0.025518 0 0.00622074 0 0.00668151 0.00622074 0.0126882 0.00668151 0.0136797 0 0.00668151 0 0.00667732 0.00668151 0.0136797 0.00667732 0.0136603 0.0126882 0.019096 0.0136797 0.0206012 0.019096 0.025518 0.0206012 0.0275426 0.0136797 0.0206012 0.0136603 0.0205693 0.0206012 0.0275426 0.0205693 0.0274984 -0.00119247 -0.00149938 0.00638146 0.00798726 -0.00149938 -0.00179732 0.00798726 0.00959948 0.00638146 0.00798726 0.025518 0.0319371 0.00798726 0.00959948 0.0319371 0.0382657 -0.00179732 -0.00208598 0.00959948 0.0112573 -0.00208598 -0.0022267 0.0112573 0.0124333 0.00959948 0.0112573 0.0382657 0.0434774 0.0112573 0.0124333 0.0434774 0.0474031 0.025518 0.0319371 0.0275426 0.0344732 0.0319371 0.0382657 0.0344732 0.0407758 0.0275426 0.0344732 0.0274984 0.0344131 0.0344732 0.0407758 0.0344131 0.040775 0.0382657 0.0434774 0.0407758 0.0459517 0.0434774 0.0474031 0.0459517 0.0500119 0.0407758 0.0459517 0.040775 0.0459842 0.0459517 0.0500119 0.0459842 0.0500275 0.000615449 0.000753353 0.000665406 0.000805312 0.000753353 0.00091726 0.000805312 0.000968921 0.000665406 0.000805312 0.000458728 0.00059036 0.000805312 0.000968921 0.00059036 0.000755031 0.00091726 0.00109264 0.000968921 0.00114435 0.00109264 0.00130516 0.00114435 0.00135683 0.000968921 0.00114435 0.000755031 0.000930339 0.00114435 0.00135683 0.000930339 0.00114299 0.000458728 0.00059036 0.00131409 0.00147998 0.00059036 0.000755031 0.00147998 0.00164097 0.00131409 0.00147998 -0.0022267 -0.00220281 0.00147998 0.00164097 -0.00220281 -0.00202935 0.000755031 0.000930339 0.00164097 0.00181649 0.000930339 0.00114299 0.00181649 0.00202853 0.00164097 0.00181649 -0.00202935 -0.00185373 0.00181649 0.00202853 -0.00185373 -0.00163951 0.00130516 0.00139704 0.00135683 0.00144871 0.00139704 0.000924217 0.00144871 0.00097581 0.00135683 0.00144871 0.00114299 0.00123487 0.00144871 0.00097581 0.00123487 0.000762247 0.000924217 -2.19259e-06 0.00097581 4.94624e-05 -2.19259e-06 -0.000982608 4.94624e-05 -0.000930721 0.00097581 4.94624e-05 0.000762247 -0.000164411 4.94624e-05 -0.000930721 -0.000164411 -0.0011456 0.00114299 0.00123487 0.00202853 0.00212033 0.00123487 0.000762247 0.00212033 0.00164665 0.00202853 0.00212033 -0.00163951 -0.00154713 0.00212033 0.00164665 -0.00154713 -0.00201668 0.000762247 -0.000164411 0.00164665 0.000721297 -0.000164411 -0.0011456 0.000721297 -0.000255725 0.00164665 0.000721297 -0.00201668 -0.00294746 0.000721297 -0.000255725 -0.00294746 -0.00394168 -0.0022267 -0.00220281 0.0124333 0.0130463 -0.00220281 -0.00202935 0.0130463 0.0131791 0.0124333 0.0130463 0.0474031 0.0500397 0.0130463 0.0131791 0.0500397 0.0513919 -0.00202935 -0.00185373 0.0131791 0.0133508 -0.00185373 -0.00163951 0.0133508 0.0135571 0.0131791 0.0133508 0.0513919 0.0516199 0.0133508 0.0135571 0.0516199 0.0517882 0.0474031 0.0500397 0.0500119 0.0529614 0.0500397 0.0513919 0.0529614 0.0547964 0.0500119 0.0529614 0.0500275 0.052908 0.0529614 0.0547964 0.052908 0.0546224 0.0513919 0.0516199 0.0547964 0.0554993 0.0516199 0.0517882 0.0554993 0.0555965 0.0547964 0.0554993 0.0546224 0.0551844 0.0554993 0.0555965 0.0551844 0.0551926 -0.00163951 -0.00154713 0.0135571 0.0136463 -0.00154713 -0.00201668 0.0136463 0.0131605 0.0135571 0.0136463 0.0517882 0.0518257 0.0136463 0.0131605 0.0518257 0.0513861 -0.00201668 -0.00294746 0.0131605 0.0122523 -0.00294746 -0.00394168 0.0122523 0.011329 0.0131605 0.0122523 0.0513861 0.0507003 0.0122523 0.011329 0.0507003 0.0500544 0.0517882 0.0518257 0.0555965 0.0555914 0.0518257 0.0513861 0.0555914 0.0553462 0.0555965 0.0555914 0.0551926 0.0551906 0.0555914 0.0553462 0.0551906 0.0551911 0.0513861 0.0507003 0.0553462 0.0550144 0.0507003 0.0500544 0.0550144 0.0547036 0.0553462 0.0550144 0.0551911 0.055191 0.0550144 0.0547036 0.055191 0.055191 0 0 -0.00120684 -0.00242289 0 0 -0.00242289 -0.00357348 -0.00120684 -0.00242289 -0.000916066 -0.00183979 -0.00242289 -0.00357348 -0.00183979 -0.00271196 0 0 -0.00357348 -0.00416047 0 0 -0.00416047 -0.0040453 -0.00357348 -0.00416047 -0.00271196 -0.00315712 -0.00416047 -0.0040453 -0.00315712 -0.00307161 -0.000916066 -0.00183979 -0.000986118 -0.00198011 -0.00183979 -0.00271196 -0.00198011 -0.00291966 -0.000986118 -0.00198011 -0.000969275 -0.00194638 -0.00198011 -0.00291966 -0.00194638 -0.00286962 -0.00271196 -0.00315712 -0.00291966 -0.0033991 -0.00315712 -0.00307161 -0.0033991 -0.00330597 -0.00291966 -0.0033991 -0.00286962 -0.00334077 -0.0033991 -0.00330597 -0.00334077 -0.0032496 0 0 -0.0040453 -0.00378005 0 0 -0.00378005 -0.00354157 -0.0040453 -0.00378005 -0.00307161 -0.00287023 -0.00378005 -0.00354157 -0.00287023 -0.00268868 0 0 -0.00354157 -0.00327105 0 0 -0.00327105 -0.00297314 -0.00354157 -0.00327105 -0.00268868 -0.00248318 -0.00327105 -0.00297314 -0.00248318 -0.00225673 -0.00307161 -0.00287023 -0.00330597 -0.00308922 -0.00287023 -0.00268868 -0.00308922 -0.00289408 -0.00330597 -0.00308922 -0.0032496 -0.00303654 -0.00308922 -0.00289408 -0.00303654 -0.00284465 -0.00268868 -0.00248318 -0.00289408 -0.00267295 -0.00248318 -0.00225673 -0.00267295 -0.00242936 -0.00289408 -0.00267295 -0.00284465 -0.00262727 -0.00267295 -0.00242936 -0.00262727 -0.00238779 -0.000969275 -0.00194638 -0.000973166 -0.00195433 -0.00194638 -0.00286962 -0.00195433 -0.00288152 -0.000973166 -0.00195433 -0.000972921 -0.00195311 -0.00195433 -0.00288152 -0.00195311 -0.00287935 -0.00286962 -0.00334077 -0.00288152 -0.00335468 -0.00334077 -0.0032496 -0.00335468 -0.003263 -0.00288152 -0.00335468 -0.00287935 -0.00335202 -0.00335468 -0.003263 -0.00335202 -0.00326047 -0.000972921 -0.00195311 -0.000970126 -0.00195053 -0.00195311 -0.00287935 -0.00195053 -0.002877 -0.000970126 -0.00195053 -0.000982608 -0.00196302 -0.00195053 -0.002877 -0.00196302 -0.00288944 -0.00287935 -0.00335202 -0.002877 -0.00334979 -0.00335202 -0.00326047 -0.00334979 -0.00325821 -0.002877 -0.00334979 -0.00288944 -0.00336219 -0.00334979 -0.00325821 -0.00336219 -0.00327062 -0.0032496 -0.00303654 -0.003263 -0.00304905 -0.00303654 -0.00284465 -0.00304905 -0.00285639 -0.003263 -0.00304905 -0.00326047 -0.00304674 -0.00304905 -0.00285639 -0.00304674 -0.00285425 -0.00284465 -0.00262727 -0.00285639 -0.00263811 -0.00262727 -0.00238779 -0.00263811 -0.00239765 -0.00285639 -0.00263811 -0.00285425 -0.0026362 -0.00263811 -0.00239765 -0.0026362 -0.00239594 -0.00326047 -0.00304674 -0.00325821 -0.00304443 -0.00304674 -0.00285425 -0.00304443 -0.0028519 -0.00325821 -0.00304443 -0.00327062 -0.00305685 -0.00304443 -0.0028519 -0.00305685 -0.00286431 -0.00285425 -0.0026362 -0.0028519 -0.00263378 -0.0026362 -0.00239594 -0.00263378 -0.00239359 -0.0028519 -0.00263378 -0.00286431 -0.00264627 -0.00263378 -0.00239359 -0.00264627 -0.0024056 0 0 -0.00297314 -0.00264437 0 0 -0.00264437 -0.00228615 -0.00297314 -0.00264437 -0.00225673 -0.0020069 -0.00264437 -0.00228615 -0.0020069 -0.00173469 0 0 -0.00228615 -0.00190478 0 0 -0.00190478 -0.00151388 -0.00228615 -0.00190478 -0.00173469 -0.00144493 -0.00190478 -0.00151388 -0.00144493 -0.0011479 -0.00225673 -0.0020069 -0.00242936 -0.00216058 -0.0020069 -0.00173469 -0.00216058 -0.00186772 -0.00242936 -0.00216058 -0.00238779 -0.00212356 -0.00216058 -0.00186772 -0.00212356 -0.00183565 -0.00173469 -0.00144493 -0.00186772 -0.00155596 -0.00144493 -0.0011479 -0.00155596 -0.00123639 -0.00186772 -0.00155596 -0.00183565 -0.00152917 -0.00155596 -0.00123639 -0.00152917 -0.00121501 0 0 -0.00151388 -0.0011208 0 0 -0.0011208 -0.00073298 -0.00151388 -0.0011208 -0.0011479 -0.000849237 -0.0011208 -0.00073298 -0.000849237 -0.000554499 0 0 -0.00073298 -0.000324586 0 0 -0.000324586 0 -0.00073298 -0.000324586 -0.000554499 -0.000243901 -0.000324586 0 -0.000243901 0 -0.0011479 -0.000849237 -0.00123639 -0.000915052 -0.000849237 -0.000554499 -0.000915052 -0.000597969 -0.00123639 -0.000915052 -0.00121501 -0.00089911 -0.000915052 -0.000597969 -0.00089911 -0.000587389 -0.000554499 -0.000243901 -0.000597969 -0.00026398 -0.000243901 0 -0.00026398 0 -0.000597969 -0.00026398 -0.000587389 -0.000258983 -0.00026398 0 -0.000258983 0 -0.00238779 -0.00212356 -0.00239765 -0.00213234 -0.00212356 -0.00183565 -0.00213234 -0.00184327 -0.00239765 -0.00213234 -0.00239594 -0.00213084 -0.00213234 -0.00184327 -0.00213084 -0.00184195 -0.00183565 -0.00152917 -0.00184327 -0.00153553 -0.00152917 -0.00121501 -0.00153553 -0.00122009 -0.00184327 -0.00153553 -0.00184195 -0.00153444 -0.00153553 -0.00122009 -0.00153444 -0.00121922 -0.00239594 -0.00213084 -0.00239359 -0.00212867 -0.00213084 -0.00184195 -0.00212867 -0.00184011 -0.00239359 -0.00212867 -0.0024056 -0.00213964 -0.00212867 -0.00184011 -0.00213964 -0.00184947 -0.00184195 -0.00153444 -0.00184011 -0.00153289 -0.00153444 -0.00121922 -0.00153289 -0.00121797 -0.00184011 -0.00153289 -0.00184947 -0.00154074 -0.00153289 -0.00121797 -0.00154074 -0.00122429 -0.00121501 -0.00089911 -0.00122009 -0.00090291 -0.00089911 -0.000587389 -0.00090291 -0.000589922 -0.00122009 -0.00090291 -0.00121922 -0.000902261 -0.00090291 -0.000589922 -0.000902261 -0.00058949 -0.000587389 -0.000258983 -0.000589922 -0.000260202 -0.000258983 0 -0.000260202 0 -0.000589922 -0.000260202 -0.00058949 -0.000260007 -0.000260202 0 -0.000260007 0 -0.00121922 -0.000902261 -0.00121797 -0.000901304 -0.000902261 -0.00058949 -0.000901304 -0.000588839 -0.00121797 -0.000901304 -0.00122429 -0.000906106 -0.000901304 -0.000588839 -0.000906106 -0.000592091 -0.00058949 -0.000260007 -0.000588839 -0.000259625 -0.000260007 0 -0.000259625 0 -0.000588839 -0.000259625 -0.000592091 -0.000261429 -0.000259625 0 -0.000261429 0 -0.000982608 -0.00196302 -0.000930721 -0.0019109 -0.00196302 -0.00288944 -0.0019109 -0.00283727 -0.000930721 -0.0019109 -0.0011456 -0.00212679 -0.0019109 -0.00283727 -0.00212679 -0.00305346 -0.00288944 -0.00336219 -0.00283727 -0.00331009 -0.00336219 -0.00327062 -0.00331009 -0.00321852 -0.00283727 -0.00331009 -0.00305346 -0.00352602 -0.00331009 -0.00321852 -0.00352602 -0.00343441 -0.0011456 -0.00212679 -0.000255725 -0.00123274 -0.00212679 -0.00305346 -0.00123274 -0.00215812 -0.000255725 -0.00123274 -0.00394168 -0.0049359 -0.00123274 -0.00215812 -0.0049359 -0.00586669 -0.00305346 -0.00352602 -0.00215812 -0.0026317 -0.00352602 -0.00343441 -0.0026317 -0.00254028 -0.00215812 -0.0026317 -0.00586669 -0.00633621 -0.0026317 -0.00254028 -0.00633621 -0.00624396 -0.00327062 -0.00305685 -0.00321852 -0.00300475 -0.00305685 -0.00286431 -0.00300475 -0.00281229 -0.00321852 -0.00300475 -0.00343441 -0.0032206 -0.00300475 -0.00281229 -0.0032206 -0.00302788 -0.00286431 -0.00264627 -0.00281229 -0.00259399 -0.00264627 -0.0024056 -0.00259399 -0.00235536 -0.00281229 -0.00259399 -0.00302788 -0.00281046 -0.00259399 -0.00235536 -0.00281046 -0.00256339 -0.00343441 -0.0032206 -0.00254028 -0.00232671 -0.0032206 -0.00302788 -0.00232671 -0.00213486 -0.00254028 -0.00232671 -0.00624396 -0.00602916 -0.00232671 -0.00213486 -0.00602916 -0.0058346 -0.00302788 -0.00281046 -0.00213486 -0.00191448 -0.00281046 -0.00256339 -0.00191448 -0.00170237 -0.00213486 -0.00191448 -0.0058346 -0.0056237 -0.00191448 -0.00170237 -0.0056237 -0.00526666 -0.00394168 -0.0049359 0.011329 0.0104057 -0.0049359 -0.00586669 0.0104057 0.00949753 0.011329 0.0104057 0.0500544 0.0494084 0.0104057 0.00949753 0.0494084 0.0487226 -0.00586669 -0.00633621 0.00949753 0.00901191 -0.00633621 -0.00624396 0.00901191 0.00910048 0.00949753 0.00901191 0.0487226 0.0482831 0.00901191 0.00910048 0.0482831 0.0483204 0.0500544 0.0494084 0.0547036 0.0543927 0.0494084 0.0487226 0.0543927 0.0540611 0.0547036 0.0543927 0.055191 0.055191 0.0543927 0.0540611 0.055191 0.0551911 0.0487226 0.0482831 0.0540611 0.0538152 0.0482831 0.0483204 0.0538152 0.0538127 0.0540611 0.0538152 0.0551911 0.0551906 0.0538152 0.0538127 0.0551906 0.0551926 -0.00624396 -0.00602916 0.00910048 0.00930938 -0.00602916 -0.0058346 0.00930938 0.00949609 0.00910048 0.00930938 0.0483204 0.0484896 0.00930938 0.00949609 0.0484896 0.0485356 -0.0058346 -0.0056237 0.00949609 0.00973523 -0.0056237 -0.00526666 0.00973523 0.00949093 0.00949609 0.00973523 0.0485356 0.0474727 0.00973523 0.00949093 0.0474727 0.0451217 0.0483204 0.0484896 0.0538127 0.0538994 0.0484896 0.0485356 0.0538994 0.053334 0.0538127 0.0538994 0.0551926 0.0551844 0.0538994 0.053334 0.0551844 0.0546224 0.0485356 0.0474727 0.053334 0.0516478 0.0474727 0.0451217 0.0516478 0.0488443 0.053334 0.0516478 0.0546224 0.052908 0.0516478 0.0488443 0.052908 0.0500275 -0.0024056 -0.00213964 -0.00235536 -0.0020938 -0.00213964 -0.00184947 -0.0020938 -0.00181034 -0.00235536 -0.0020938 -0.00256339 -0.00228345 -0.0020938 -0.00181034 -0.00228345 -0.00197228 -0.00184947 -0.00154074 -0.00181034 -0.00150797 -0.00154074 -0.00122429 -0.00150797 -0.00119796 -0.00181034 -0.00150797 -0.00197228 -0.00164337 -0.00150797