# vtk DataFile Version 3.0
#This file was generated by the deal.II library on 2020/3/17 at 13:08:18
ASCII
DATASET UNSTRUCTURED_GRID

POINTS 1396 double
0.75 -0.5 0
1 -0.5 0
0.75 -0.25 0
1 -0.25 0
-1 0.25 0
-0.75 0.25 0
-1 0.5 0
-0.75 0.5 0
-1 -1 0
-0.75 -1 0
-1 -0.75 0
-0.75 -0.75 0
-0.75 -1 0
-0.5 -1 0
-0.75 -0.75 0
-0.5 -0.75 0
-1 -0.75 0
-0.75 -0.75 0
-1 -0.5 0
-0.75 -0.5 0
-0.5 -1 0
-0.25 -1 0
-0.5 -0.75 0
-0.25 -0.75 0
-0.25 -1 0
0 -1 0
-0.25 -0.75 0
0 -0.75 0
-0.5 -0.75 0
-0.25 -0.75 0
-0.5 -0.5 0
-0.25 -0.5 0
0 -1 0
0.25 -1 0
0 -0.75 0
0.25 -0.75 0
0.25 -1 0
0.5 -1 0
0.25 -0.75 0
0.5 -0.75 0
0.25 -0.75 0
0.5 -0.75 0
0.25 -0.5 0
0.5 -0.5 0
-0.5 0.5 0
-0.25 0.5 0
-0.5 0.75 0
-0.25 0.75 0
-0.5 0.75 0
-0.25 0.75 0
-0.5 1 0
-0.25 1 0
-0.25 0.75 0
0 0.75 0
-0.25 1 0
0 1 0
0.25 0.5 0
0.5 0.5 0
0.25 0.75 0
0.5 0.75 0
0 0.75 0
0.25 0.75 0
0 1 0
0.25 1 0
0.25 0.75 0
0.5 0.75 0
0.25 1 0
0.5 1 0
0.75 0.5 0
1 0.5 0
0.75 0.75 0
1 0.75 0
0.5 0.75 0
0.75 0.75 0
0.5 1 0
0.75 1 0
0.75 0.75 0
1 0.75 0
0.75 1 0
1 1 0
0.5 -1 0
0.75 -1 0
0.5 -0.75 0
0.75 -0.75 0
0.75 -1 0
1 -1 0
0.75 -0.75 0
1 -0.75 0
0.5 -0.75 0
0.75 -0.75 0
0.5 -0.5 0
0.75 -0.5 0
0.75 -0.75 0
1 -0.75 0
0.75 -0.5 0
1 -0.5 0
-1 0.5 0
-0.75 0.5 0
-1 0.75 0
-0.75 0.75 0
-0.75 0.5 0
-0.5 0.5 0
-0.75 0.75 0
-0.5 0.75 0
-1 0.75 0
-0.75 0.75 0
-1 1 0
-0.75 1 0
-0.75 0.75 0
-0.5 0.75 0
-0.75 1 0
-0.5 1 0
-0.5 -0.25 0
-0.375 -0.25 0
-0.5 -0.125 0
-0.375 -0.125 0
-0.375 -0.25 0
-0.25 -0.25 0
-0.375 -0.125 0
-0.25 -0.125 0
-0.375 -0.125 0
-0.25 -0.125 0
-0.375 0 0
-0.25 0 0
-0.25 -0.125 0
-0.125 -0.125 0
-0.25 0 0
-0.125 0 0
0.125 -0.125 0
0.25 -0.125 0
0.125 0 0
0.25 0 0
0.25 -0.25 0
0.375 -0.25 0
0.25 -0.125 0
0.375 -0.125 0
0.375 -0.25 0
0.5 -0.25 0
0.375 -0.125 0
0.5 -0.125 0
0.25 -0.125 0
0.375 -0.125 0
0.25 0 0
0.375 0 0
-0.375 0 0
-0.25 0 0
-0.375 0.125 0
-0.25 0.125 0
-0.5 0.125 0
-0.375 0.125 0
-0.5 0.25 0
-0.375 0.25 0
-0.375 0.125 0
-0.25 0.125 0
-0.375 0.25 0
-0.25 0.25 0
-0.25 0 0
-0.125 0 0
-0.25 0.125 0
-0.125 0.125 0
0.125 0 0
0.25 0 0
0.125 0.125 0
0.25 0.125 0
0.25 0 0
0.375 0 0
0.25 0.125 0
0.375 0.125 0
0.25 0.125 0
0.375 0.125 0
0.25 0.25 0
0.375 0.25 0
0.375 0.125 0
0.5 0.125 0
0.375 0.25 0
0.5 0.25 0
-0.625 -0.5 0
-0.5 -0.5 0
-0.625 -0.375 0
-0.5 -0.375 0
-0.625 -0.375 0
-0.5 -0.375 0
-0.625 -0.25 0
-0.5 -0.25 0
-1 -0.25 0
-0.875 -0.25 0
-1 -0.125 0
-0.875 -0.125 0
-1 -0.125 0
-0.875 -0.125 0
-1 0 0
-0.875 0 0
-0.5 -0.5 0
-0.375 -0.5 0
-0.5 -0.375 0
-0.375 -0.375 0
-0.375 -0.5 0
-0.25 -0.5 0
-0.375 -0.375 0
-0.25 -0.375 0
-0.5 -0.375 0
-0.375 -0.375 0
-0.5 -0.25 0
-0.375 -0.25 0
-0.375 -0.375 0
-0.25 -0.375 0
-0.375 -0.25 0
-0.25 -0.25 0
-0.25 -0.375 0
-0.125 -0.375 0
-0.25 -0.25 0
-0.125 -0.25 0
-0.125 -0.375 0
0 -0.375 0
-0.125 -0.25 0
0 -0.25 0
0 -0.375 0
0.125 -0.375 0
0 -0.25 0
0.125 -0.25 0
0.125 -0.375 0
0.25 -0.375 0
0.125 -0.25 0
0.25 -0.25 0
0.25 -0.5 0
0.375 -0.5 0
0.25 -0.375 0
0.375 -0.375 0
0.375 -0.5 0
0.5 -0.5 0
0.375 -0.375 0
0.5 -0.375 0
0.25 -0.375 0
0.375 -0.375 0
0.25 -0.25 0
0.375 -0.25 0
0.375 -0.375 0
0.5 -0.375 0
0.375 -0.25 0
0.5 -0.25 0
-0.5 0.25 0
-0.375 0.25 0
-0.5 0.375 0
-0.375 0.375 0
-0.375 0.25 0
-0.25 0.25 0
-0.375 0.375 0
-0.25 0.375 0
-0.5 0.375 0
-0.375 0.375 0
-0.5 0.5 0
-0.375 0.5 0
-0.375 0.375 0
-0.25 0.375 0
-0.375 0.5 0
-0.25 0.5 0
-0.25 0.25 0
-0.125 0.25 0
-0.25 0.375 0
-0.125 0.375 0
-0.125 0.25 0
0 0.25 0
-0.125 0.375 0
0 0.375 0
0 0.25 0
0.125 0.25 0
0 0.375 0
0.125 0.375 0
0.125 0.25 0
0.25 0.25 0
0.125 0.375 0
0.25 0.375 0
0.25 0.25 0
0.375 0.25 0
0.25 0.375 0
0.375 0.375 0
0.375 0.25 0
0.5 0.25 0
0.375 0.375 0
0.5 0.375 0
0.25 0.375 0
0.375 0.375 0
0.25 0.5 0
0.375 0.5 0
0.375 0.375 0
0.5 0.375 0
0.375 0.5 0
0.5 0.5 0
0.875 0 0
1 0 0
0.875 0.125 0
1 0.125 0
0.875 0.125 0
1 0.125 0
0.875 0.25 0
1 0.25 0
0.5 0.25 0
0.625 0.25 0
0.5 0.375 0
0.625 0.375 0
0.5 0.375 0
0.625 0.375 0
0.5 0.5 0
0.625 0.5 0
0.5 -0.25 0
0.625 -0.25 0
0.5 -0.125 0
0.625 -0.125 0
-0.625 0.125 0
-0.5 0.125 0
-0.625 0.25 0
-0.5 0.25 0
-1 -0.5 0
-0.875 -0.5 0
-1 -0.375 0
-0.875 -0.375 0
-0.875 -0.5 0
-0.75 -0.5 0
-0.875 -0.375 0
-0.75 -0.375 0
-1 -0.375 0
-0.875 -0.375 0
-1 -0.25 0
-0.875 -0.25 0
-0.875 -0.375 0
-0.75 -0.375 0
-0.875 -0.25 0
-0.75 -0.25 0
0.75 0.25 0
0.875 0.25 0
0.75 0.375 0
0.875 0.375 0
0.875 0.25 0
1 0.25 0
0.875 0.375 0
1 0.375 0
0.75 0.375 0
0.875 0.375 0
0.75 0.5 0
0.875 0.5 0
0.875 0.375 0
1 0.375 0
0.875 0.5 0
1 0.5 0
0.5 -0.5 0
0.625 -0.5 0
0.5 -0.375 0
0.625 -0.375 0
0.625 -0.5 0
0.75 -0.5 0
0.625 -0.375 0
0.75 -0.375 0
0.5 -0.375 0
0.625 -0.375 0
0.5 -0.25 0
0.625 -0.25 0
0.625 -0.375 0
0.75 -0.375 0
0.625 -0.25 0
0.75 -0.25 0
0.75 -0.25 0
0.875 -0.25 0
0.75 -0.125 0
0.875 -0.125 0
0.875 -0.25 0
1 -0.25 0
0.875 -0.125 0
1 -0.125 0
0.75 -0.125 0
0.875 -0.125 0
0.75 0 0
0.875 0 0
0.875 -0.125 0
1 -0.125 0
0.875 0 0
1 0 0
-1 0 0
-0.875 0 0
-1 0.125 0
-0.875 0.125 0
-0.875 0 0
-0.75 0 0
-0.875 0.125 0
-0.75 0.125 0
-1 0.125 0
-0.875 0.125 0
-1 0.25 0
-0.875 0.25 0
-0.875 0.125 0
-0.75 0.125 0
-0.875 0.25 0
-0.75 0.25 0
-0.75 0.25 0
-0.625 0.25 0
-0.75 0.375 0
-0.625 0.375 0
-0.625 0.25 0
-0.5 0.25 0
-0.625 0.375 0
-0.5 0.375 0
-0.75 0.375 0
-0.625 0.375 0
-0.75 0.5 0
-0.625 0.5 0
-0.625 0.375 0
-0.5 0.375 0
-0.625 0.5 0
-0.5 0.5 0
-0.75 -0.75 0
-0.625 -0.75 0
-0.75 -0.625 0
-0.625 -0.625 0
-0.625 -0.75 0
-0.5 -0.75 0
-0.625 -0.625 0
-0.5 -0.625 0
-0.75 -0.625 0
-0.625 -0.625 0
-0.75 -0.5 0
-0.625 -0.5 0
-0.625 -0.625 0
-0.5 -0.625 0
-0.625 -0.5 0
-0.5 -0.5 0
-0.25 -0.75 0
-0.125 -0.75 0
-0.25 -0.625 0
-0.125 -0.625 0
-0.125 -0.75 0
0 -0.75 0
-0.125 -0.625 0
0 -0.625 0
-0.25 -0.625 0
-0.125 -0.625 0
-0.25 -0.5 0
-0.125 -0.5 0
-0.125 -0.625 0
0 -0.625 0
-0.125 -0.5 0
0 -0.5 0
0 -0.75 0
0.125 -0.75 0
0 -0.625 0
0.125 -0.625 0
0.125 -0.75 0
0.25 -0.75 0
0.125 -0.625 0
0.25 -0.625 0
0 -0.625 0
0.125 -0.625 0
0 -0.5 0
0.125 -0.5 0
0.125 -0.625 0
0.25 -0.625 0
0.125 -0.5 0
0.25 -0.5 0
-0.25 0.5 0
-0.125 0.5 0
-0.25 0.625 0
-0.125 0.625 0
-0.125 0.5 0
0 0.5 0
-0.125 0.625 0
0 0.625 0
-0.25 0.625 0
-0.125 0.625 0
-0.25 0.75 0
-0.125 0.75 0
-0.125 0.625 0
0 0.625 0
-0.125 0.75 0
0 0.75 0
0 0.5 0
0.125 0.5 0
0 0.625 0
0.125 0.625 0
0.125 0.5 0
0.25 0.5 0
0.125 0.625 0
0.25 0.625 0
0 0.625 0
0.125 0.625 0
0 0.75 0
0.125 0.75 0
0.125 0.625 0
0.25 0.625 0
0.125 0.75 0
0.25 0.75 0
0.5 0.5 0
0.625 0.5 0
0.5 0.625 0
0.625 0.625 0
0.625 0.5 0
0.75 0.5 0
0.625 0.625 0
0.75 0.625 0
0.5 0.625 0
0.625 0.625 0
0.5 0.75 0
0.625 0.75 0
0.625 0.625 0
0.75 0.625 0
0.625 0.75 0
0.75 0.75 0
-0.6875 -0.25 0
-0.625 -0.25 0
-0.6875 -0.1875 0
-0.625 -0.1875 0
-0.6875 -0.0625 0
-0.625 -0.0625 0
-0.6875 0 0
-0.625 0 0
-0.25 -0.25 0
-0.1875 -0.25 0
-0.25 -0.1875 0
-0.1875 -0.1875 0
-0.1875 -0.25 0
-0.125 -0.25 0
-0.1875 -0.1875 0
-0.125 -0.1875 0
-0.25 -0.1875 0
-0.1875 -0.1875 0
-0.25 -0.125 0
-0.1875 -0.125 0
-0.1875 -0.1875 0
-0.125 -0.1875 0
-0.1875 -0.125 0
-0.125 -0.125 0
0 -0.25 0
0.0625 -0.25 0
0 -0.1875 0
0.0625 -0.1875 0
0.0625 -0.25 0
0.125 -0.25 0
0.0625 -0.1875 0
0.125 -0.1875 0
0 -0.1875 0
0.0625 -0.1875 0
0 -0.125 0
0.0625 -0.125 0
0.0625 -0.1875 0
0.125 -0.1875 0
0.0625 -0.125 0
0.125 -0.125 0
0.125 -0.25 0
0.1875 -0.25 0
0.125 -0.1875 0
0.1875 -0.1875 0
0.1875 -0.25 0
0.25 -0.25 0
0.1875 -0.1875 0
0.25 -0.1875 0
0.125 -0.1875 0
0.1875 -0.1875 0
0.125 -0.125 0
0.1875 -0.125 0
0.1875 -0.1875 0
0.25 -0.1875 0
0.1875 -0.125 0
0.25 -0.125 0
-0.25 0.125 0
-0.1875 0.125 0
-0.25 0.1875 0
-0.1875 0.1875 0
-0.1875 0.125 0
-0.125 0.125 0
-0.1875 0.1875 0
-0.125 0.1875 0
-0.25 0.1875 0
-0.1875 0.1875 0
-0.25 0.25 0
-0.1875 0.25 0
-0.1875 0.1875 0
-0.125 0.1875 0
-0.1875 0.25 0
-0.125 0.25 0
-0.125 0.125 0
-0.0625 0.125 0
-0.125 0.1875 0
-0.0625 0.1875 0
-0.0625 0.125 0
0 0.125 0
-0.0625 0.1875 0
0 0.1875 0
-0.125 0.1875 0
-0.0625 0.1875 0
-0.125 0.25 0
-0.0625 0.25 0
-0.0625 0.1875 0
0 0.1875 0
-0.0625 0.25 0
0 0.25 0
0.125 0.125 0
0.1875 0.125 0
0.125 0.1875 0
0.1875 0.1875 0
0.1875 0.125 0
0.25 0.125 0
0.1875 0.1875 0
0.25 0.1875 0
0.125 0.1875 0
0.1875 0.1875 0
0.125 0.25 0
0.1875 0.25 0
0.1875 0.1875 0
0.25 0.1875 0
0.1875 0.25 0
0.25 0.25 0
0.625 0.1875 0
0.6875 0.1875 0
0.625 0.25 0
0.6875 0.25 0
-0.625 -0.25 0
-0.5625 -0.25 0
-0.625 -0.1875 0
-0.5625 -0.1875 0
-0.5625 -0.25 0
-0.5 -0.25 0
-0.5625 -0.1875 0
-0.5 -0.1875 0
-0.625 -0.1875 0
-0.5625 -0.1875 0
-0.625 -0.125 0
-0.5625 -0.125 0
-0.5625 -0.1875 0
-0.5 -0.1875 0
-0.5625 -0.125 0
-0.5 -0.125 0
-0.625 -0.125 0
-0.5625 -0.125 0
-0.625 -0.0625 0
-0.5625 -0.0625 0
-0.5625 -0.125 0
-0.5 -0.125 0
-0.5625 -0.0625 0
-0.5 -0.0625 0
-0.625 -0.0625 0
-0.5625 -0.0625 0
-0.625 0 0
-0.5625 0 0
-0.5625 -0.0625 0
-0.5 -0.0625 0
-0.5625 0 0
-0.5 0 0
-0.5 -0.125 0
-0.4375 -0.125 0
-0.5 -0.0625 0
-0.4375 -0.0625 0
-0.4375 -0.125 0
-0.375 -0.125 0
-0.4375 -0.0625 0
-0.375 -0.0625 0
-0.5 -0.0625 0
-0.4375 -0.0625 0
-0.5 0 0
-0.4375 0 0
-0.4375 -0.0625 0
-0.375 -0.0625 0
-0.4375 0 0
-0.375 0 0
-0.125 -0.25 0
-0.0625 -0.25 0
-0.125 -0.1875 0
-0.0625 -0.1875 0
-0.0625 -0.25 0
0 -0.25 0
-0.0625 -0.1875 0
0 -0.1875 0
-0.125 -0.1875 0
-0.0625 -0.1875 0
-0.125 -0.125 0
-0.0625 -0.125 0
-0.0625 -0.1875 0
0 -0.1875 0
-0.0625 -0.125 0
0 -0.125 0
-0.125 -0.125 0
-0.0625 -0.125 0
-0.125 -0.0625 0
-0.0625 -0.0625 0
-0.0625 -0.125 0
0 -0.125 0
-0.0625 -0.0625 0
0 -0.0625 0
-0.125 -0.0625 0
-0.0625 -0.0625 0
-0.125 0 0
-0.0625 0 0
-0.0625 -0.0625 0
0 -0.0625 0
-0.0625 0 0
0 0 0
0 -0.125 0
0.0625 -0.125 0
0 -0.0625 0
0.0625 -0.0625 0
0.0625 -0.125 0
0.125 -0.125 0
0.0625 -0.0625 0
0.125 -0.0625 0
0 -0.0625 0
0.0625 -0.0625 0
0 0 0
0.0625 0 0
0.0625 -0.0625 0
0.125 -0.0625 0
0.0625 0 0
0.125 0 0
0.375 -0.125 0
0.4375 -0.125 0
0.375 -0.0625 0
0.4375 -0.0625 0
0.4375 -0.125 0
0.5 -0.125 0
0.4375 -0.0625 0
0.5 -0.0625 0
0.375 -0.0625 0
0.4375 -0.0625 0
0.375 0 0
0.4375 0 0
0.4375 -0.0625 0
0.5 -0.0625 0
0.4375 0 0
0.5 0 0
-0.5 0 0
-0.4375 0 0
-0.5 0.0625 0
-0.4375 0.0625 0
-0.4375 0 0
-0.375 0 0
-0.4375 0.0625 0
-0.375 0.0625 0
-0.5 0.0625 0
-0.4375 0.0625 0
-0.5 0.125 0
-0.4375 0.125 0
-0.4375 0.0625 0
[...]
POINT_DATA 1396
SCALARS x_displacement double 1
LOOKUP_TABLE default
0.00128844 0 0.00442437 0 0 0.00443165 0 0.00128945 0 0 0 0.00163202 0 0 0.00163202 0.00302533 0 0.00163202 0 0.0029156 0 0 0.00302533 0.00327818 0 0 0.00327818 0.00265112 0.00302533 0.00327818 0.0076097 0.00786283 0 0 0.00265112 0.00126533 0 0 0.00126533 0.000431013 0.00126533 0.000431013 0.00502081 0.00289835 0.00290108 0.00502487 0.000430816 0.00126574 0.000430816 0.00126574 0 0 0.00126574 0.0026519 0 0 0.00786169 0.00760877 0.00327899 0.00302611 0.0026519 0.00327899 0 0 0.00327899 0.00302611 0 0 0.0029144 0 0.0016322 0 0.00302611 0.0016322 0 0 0.0016322 0 0 0 0 0 0.000431013 0.000221511 0 0 0.000221511 0 0.000431013 0.000221511 0.00289835 0.00128844 0.000221511 0 0.00128844 0 0 0.00128945 0 0.000221472 0.00128945 0.00290108 0.000221472 0.000430816 0 0.000221472 0 0 0.000221472 0.000430816 0 0 0.0141279 0.0153568 0.0201016 0.0200632 0.0153568 0.0154223 0.0200632 0.0187294 0.0200632 0.0187294 0.0211019 0.0186995 0.0187294 0.0170814 0.0186995 0.017193 0.0150147 0.0157069 0.0171875 0.0186906 0.0112895 0.0111039 0.0157069 0.0172928 0.0111039 0.0105601 0.0172928 0.0178372 0.0157069 0.0172928 0.0186906 0.0210895 0.0211019 0.0186995 0.0173111 0.0157181 0.0178735 0.0173111 0.0105781 0.0111194 0.0173111 0.0157181 0.0111194 0.0112998 0.0186995 0.017193 0.0157181 0.0150204 0.0171875 0.0186906 0.017078 0.0187221 0.0186906 0.0210895 0.0187221 0.0200531 0.0187221 0.0200531 0.0154172 0.0153482 0.0200531 0.0200842 0.0153482 0.0141154 0.00616991 0.0076097 0.00893366 0.0103119 0.00893366 0.0103119 0.0118501 0.0141279 0 0.00294461 0 0.00350273 0 0.00350273 0 0.00398393 0.0076097 0.00960228 0.0103119 0.0113998 0.00960228 0.00786283 0.0113998 0.0123285 0.0103119 0.0113998 0.0141279 0.0153568 0.0113998 0.0123285 0.0153568 0.0154223 0.0123285 0.0117861 0.0154223 0.014566 0.0117861 0.0105157 0.014566 0.0130302 0.0105157 0.00908587 0.0130302 0.0115548 0.00908587 0.0075274 0.0115548 0.0112895 0.00502081 0.00384689 0.0075274 0.00671967 0.00384689 0.00289835 0.00671967 0.00610352 0.0075274 0.00671967 0.0112895 0.0111039 0.00671967 0.00610352 0.0111039 0.0105601 0.0105781 0.0111194 0.00611153 0.00672814 0.0111194 0.0112998 0.00672814 0.00753447 0.00611153 0.00672814 0.00290108 0.00385165 0.00672814 0.00753447 0.00385165 0.00502487 0.0112998 0.01156 0.00753447 0.00909049 0.01156 0.0130319 0.00909049 0.0105177 0.0130319 0.0145645 0.0105177 0.0117855 0.0145645 0.0154172 0.0117855 0.0123256 0.0154172 0.0153482 0.0123256 0.0113951 0.0153482 0.0141154 0.0113951 0.0103072 0.0123256 0.0113951 0.00786169 0.00960058 0.0113951 0.0103072 0.00960058 0.00760877 0.00401334 0 0.00351235 0 0.00351235 0 0.00293764 0 0.0141154 0.0118389 0.0103072 0.00892936 0.0103072 0.00892936 0.00760877 0.00616914 0.0105601 0.00905332 0.0178372 0.0153532 0.0153913 0.0178735 0.00906697 0.0105781 0 0.00258799 0 0.00237679 0.00258799 0.0029156 0.00237679 0.00466398 0 0.00237679 0 0.00294461 0.00237679 0.00466398 0.00294461 0.00671275 0.00669857 0.00293764 0.00465873 0.00237282 0.00293764 0 0.00237282 0 0.00465873 0.00237282 0.0029144 0.00258544 0.00237282 0 0.00258544 0 0.00289835 0.00275099 0.00610352 0.00522038 0.00275099 0.00128844 0.00522038 0.00588052 0.00610352 0.00522038 0.0105601 0.00905332 0.00522038 0.00588052 0.00905332 0.00442437 0.00442437 0.00292202 0.00773108 0.00356099 0.00292202 0 0.00356099 0 0.00773108 0.00356099 0.0101487 0.00401334 0.00356099 0 0.00401334 0 0 0.00398393 0 0.00355306 0.00398393 0.0100638 0.00355306 0.00774636 0 0.00355306 0 0.0029354 0.00355306 0.00774636 0.0029354 0.00443165 0.00443165 0.00906697 0.00588657 0.00522603 0.00906697 0.0105781 0.00522603 0.00611153 0.00588657 0.00522603 0.00128945 0.00275278 0.00522603 0.00611153 0.00275278 0.00290108 0.00163202 0.00306437 0.00482046 0.00417394 0.00306437 0.00302533 0.00417394 0.00406519 0.00482046 0.00417394 0.0029156 0.00616991 0.00417394 0.00406519 0.00616991 0.0076097 0.00327818 0.00390394 0.00602734 0.00556578 0.00390394 0.00265112 0.00556578 0.00514149 0.00602734 0.00556578 0.00786283 0.00806974 0.00556578 0.00514149 0.00806974 0.0073372 0.00265112 0.00279634 0.00514149 0.00429712 0.00279634 0.00126533 0.00429712 0.00429346 0.00514149 0.00429712 0.0073372 0.00645578 0.00429712 0.00429346 0.00645578 0.00502081 0.00502487 0.00645861 0.00429499 0.00429867 0.00645861 0.00733883 0.00429867 0.00514279 0.00429499 0.00429867 0.00126574 0.00279717 0.00429867 0.00514279 0.00279717 0.0026519 0.00733883 0.00807019 0.00514279 0.00556673 0.00807019 0.00786169 0.00556673 0.00602838 0.00514279 0.00556673 0.0026519 0.00390506 0.00556673 0.00602838 0.00390506 0.00327899 0.00760877 0.00616914 0.00406553 0.00417423 0.00616914 0.0029144 0.00417423 0.00482057 0.00406553 0.00417423 0.00302611 0.00306519 0.00417423 0.00482057 0.00306519 0.0016322 0.0101083 0.0118501 0.0119441 0.0141095 0.0153491 0.0184541 0.0160062 0.0185279 0.0154223 0.0162687 0.016341 0.0165979 0.0162687 0.014566 0.0165979 0.016143 0.016341 0.0165979 0.0187294 0.016386 0.0165979 0.016143 0.016386 0.0170814 0.0130302 0.0125567 0.0146066 0.0138088 0.0125567 0.0115548 0.0138088 0.0133451 0.0146066 0.0138088 0.0154395 0.0151354 0.0138088 0.0133451 0.0151354 0.0150147 0.0115548 0.0112534 0.0133451 0.0130303 0.0112534 0.0112895 0.0130303 0.0132066 0.0133451 0.0130303 0.0150147 0.0155042 0.0130303 0.0132066 0.0155042 0.0157069 0.0157181 0.0155114 0.0132129 0.0130369 0.0155114 0.0150204 0.0130369 0.0133502 0.0132129 0.0130369 0.0112998 0.0112604 0.0130369 0.0133502 0.0112604 0.01156 0.0150204 0.0151382 0.0133502 0.0138121 0.0151382 0.0154405 0.0138121 0.014608 0.0133502 0.0138121 0.01156 0.0125601 0.0138121 0.014608 0.0125601 0.0130319 0.017078 0.0163818 0.016141 0.0165946 0.0163818 0.0187221 0.0165946 0.0163379 0.016141 0.0165946 0.0145645 0.0162658 0.0165946 0.0163379 0.0162658 0.0154172 0.0140877 0.0119195 0.0118389 0.0100969 0.0118501 0.0136279 0.0141095 0.0155176 0.0136279 0.0141279 0.0155176 0.0160255 0.0141095 0.0155176 0.0169228 0.0188086 0.0155176 0.0160255 0.0188086 0.0201016 0.0169228 0.0188086 0.0184541 0.0203187 0.0188086 0.0201016 0.0203187 0.0216144 0.0184541 0.0203187 0.0185279 0.0203961 0.0203187 0.0216144 0.0203961 0.0215575 0.0201016 0.0217809 0.0216144 0.022127 0.0217809 0.0200632 0.022127 0.0227797 0.0216144 0.022127 0.0215575 0.022077 0.022127 0.0227797 0.022077 0.0211019 0.014566 0.0149666 0.016143 0.0152563 0.0149666 0.0130302 0.0152563 0.0146066 0.016143 0.0152563 0.0170814 0.0159846 0.0152563 0.0146066 0.0159846 0.0154395 0.0170814 0.0159846 0.0165215 0.0163885 0.0159846 0.0154395 0.0163885 0.0160647 0.0165215 0.0163885 0.017193 0.0164755 0.0163885 0.0160647 0.0164755 0.0162931 0.0154395 0.0151354 0.0160647 0.0158196 0.0151354 0.0150147 0.0158196 0.0155225 0.0160647 0.0158196 0.0162931 0.0164736 0.0158196 0.0155225 0.0164736 0.0171875 0.0172928 0.0186841 0.0213422 0.0208403 0.0186841 0.0178372 0.0208403 0.0204798 0.0213422 0.0208403 0.0210895 0.0220625 0.0208403 0.0204798 0.0220625 0.0215463 0.0215575 0.022077 0.0205097 0.0208637 0.022077 0.0211019 0.0208637 0.0213652 0.0205097 0.0208637 0.0178735 0.0187117 0.0208637 0.0213652 0.0187117 0.0173111 0.017193 0.0164755 0.0155245 0.0158216 0.0164755 0.0162931 0.0158216 0.0160652 0.0155245 0.0158216 0.0150204 0.0151382 0.0158216 0.0160652 0.0151382 0.0154405 0.0162931 0.0164736 0.0160652 0.0163876 0.0164736 0.0171875 0.0163876 0.0165205 0.0160652 0.0163876 0.0154405 0.0159838 0.0163876 0.0165205 0.0159838 0.017078 0.0154405 0.0159838 0.014608 0.0152558 0.0159838 0.017078 0.0152558 0.016141 0.014608 0.0152558 0.0130319 0.0149666 0.0152558 0.016141 0.0149666 0.0145645 0.0210895 0.0220625 0.0227668 0.0221155 0.0220625 0.0215463 0.0221155 0.0216063 0.0227668 0.0221155 0.0200531 0.0217685 0.0221155 0.0216063 0.0217685 0.0200842 0.0215463 0.020401 0.0216063 0.0203201 0.020401 0.0185393 0.0203201 0.0184539 0.0216063 0.0203201 0.0200842 0.0187701 0.0203201 0.0184539 0.0187701 0.016882 0.0200842 0.0187701 0.0159961 0.0154917 0.0187701 0.016882 0.0154917 0.0140877 0.0159961 0.0154917 0.0141154 0.0136131 0.0154917 0.0140877 0.0136131 0.0118389 0.0029156 0.00507693 0.00605946 0.00563547 0.00507693 0.00616991 0.00563547 0.00553553 0.00605946 0.00563547 0.00466398 0.00685976 0.00563547 0.00553553 0.00685976 0.00893366 0.00466398 0.00685976 0.00877509 0.0082232 0.00685976 0.00893366 0.0082232 0.00797792 0.00877509 0.0082232 0.00671275 0.0101083 0.0082232 0.00797792 0.0101083 0.0118501 0.00294461 0.00641627 0.00741658 0.00712288 0.00641627 0.00671275 0.00712288 0.00880127 0.00741658 0.00712288 0.00350273 0.00763992 0.00712288 0.00880127 0.00763992 0.00994709 0.00350273 0.00763992 0.00847337 0.0083894 0.00763992 0.00994709 0.0083894 0.0104801 0.00847337 0.0083894 0.00398393 0.00782547 0.0083894 0.0104801 0.00782547 0.0100638 0.00786283 0.00879395 0.0097949 0.00990098 0.00879395 0.00806974 0.00990098 0.00960388 0.0097949 0.00990098 0.0123285 0.0109449 0.00990098 0.00960388 0.0109449 0.0117861 0.00806974 0.00839373 0.00960388 0.00941416 0.00839373 0.0073372 0.00941416 0.00884927 0.00960388 0.00941416 0.0117861 0.0102633 0.00941416 0.00884927 0.0102633 0.0105157 0.0073372 0.00734844 0.00884927 0.00832432 0.00734844 0.00645578 0.00832432 0.00779984 0.00884927 0.00832432 0.0105157 0.00933084 0.00832432 0.00779984 0.00933084 0.00908587 0.00645578 0.00619482 0.00779984 0.00729451 0.00619482 0.00502081 0.00729451 0.00750514 0.00779984 0.00729451 0.00908587 0.00841212 0.00729451 0.00750514 0.00841212 0.0075274 0.00753447 0.00841714 0.00750935 0.0072988 0.00841714 0.00909049 0.0072988 0.00780335 0.00750935 0.0072988 0.00502487 0.0061984 0.0072988 0.00780335 0.0061984 0.00645861 0.00909049 0.00933378 0.00780335 0.00832707 0.00933378 0.0105177 0.00832707 0.00885109 0.00780335 0.00832707 0.00645861 0.00735092 0.00832707 0.00885109 0.00735092 0.00733883 0.0105177 0.010264 0.00885109 0.00941507 0.010264 0.0117855 0.00941507 0.00960401 0.00885109 0.00941507 0.00733883 0.00839482 0.00941507 0.00960401 0.00839482 0.00807019 0.0117855 0.0109437 0.00960401 0.00990038 0.0109437 0.0123256 0.00990038 0.00979438 0.00960401 0.00990038 0.00807019 0.00879381 0.00990038 0.00979438 0.00879381 0.00786169 0.0101487 0.00789327 0.0106091 0.00845328 0.00789327 0.00401334 0.00845328 0.00853066 0.0106091 0.00845328 0.00991094 0.00765541 0.00845328 0.00853066 0.00765541 0.00351235 0.00991094 0.00765541 0.00877975 0.00710708 0.00765541 0.00351235 0.00710708 0.00741033 0.00877975 0.00710708 0.00669857 0.00639726 0.00710708 0.00741033 0.00639726 0.00293764 0.0118389 0.0100969 0.00797175 0.00821581 0.0100969 0.00669857 0.00821581 0.00876624 0.00797175 0.00821581 0.00892936 0.00685528 0.00821581 0.00876624 0.00685528 0.00465873 0.00892936 0.00685528 0.00553324 0.005633 0.00685528 0.00465873 0.005633 0.0060566 0.00553324 0.005633 0.00616914 0.00507587 0.005633 0.0060566 0.00507587 0.0029144 0.00905332 0.0072775 0.00918311 0.00920802 0.0072775 0.00442437 0.00920802 0.00985512 0.00918311 0.00920802 0.0153532 0.0122637 0.00920802 0.00985512 0.0122637 0.00773108 0.0178372 0.0174869 0.0204798 0.0191978 0.0174869 0.0153532 0.0191978 0.0173812 0.0204798 0.0191978 0.0215463 0.020401 0.0191978 0.0173812 0.020401 0.0185393 0.0153532 0.0122637 0.0173812 0.0151936 0.0122637 0.00773108 0.0151936 0.0150114 0.0173812 0.0151936 0.0185393 0.0154217 0.0151936 0.0150114 0.0154217 0.0101487 0.0100638 0.0160062 0.0152303 0.0152559 0.0160062 0.0185279 0.0152559 0.0174992 0.0152303 0.0152559 0.00774636 0.0123065 0.0152559 0.0174992 0.0123065 0.0153913 0.0185279 0.0203961 0.0174992 0.0192546 0.0203961 0.0215575 0.0192546 0.0205097 0.0174992 0.0192546 0.0153913 0.0175552 0.0192546 0.0205097 0.0175552 0.0178735 0.00774636 0.0123065 0.00987512 0.00922167 0.0123065 0.0153913 0.00922167 0.00920056 0.00987512 0.00922167 0.00443165 0.00728478 0.00922167 0.00920056 0.00728478 0.00906697 0.00671275 0.00884339 0.00978056 0.00936185 0.00884339 0.0101083 0.00936185 0.00930632 0.00978056 0.00936185 0.00880127 0.0106216 0.00936185 0.00930632 0.0106216 0.0119441 0.00880127 0.0106216 0.0118075 0.0117388 0.0106216 0.0119441 0.0117388 0.0126255 0.0118075 0.0117388 0.00994709 0.0122512 0.0117388 0.0126255 0.0122512 0.0134471 0.0119441 0.0130241 0.0126255 0.0135107 0.0130241 0.0141095 0.0135107 0.0135708 0.0126255 0.0135107 0.0134471 0.0147019 0.0135107 0.0135708 0.0147019 0.0169228 0.00994709 0.0122512 0.0130972 0.0130956 0.0122512 0.0134471 0.0130956 0.0141749 0.0130972 0.0130956 0.0104801 0.0131019 0.0130956 0.0141749 0.0131019 0.0153491 0.0134471 0.0147019 0.0141749 0.0153899 0.0147019 0.0169228 0.0153899 0.0153326 0.0141749 0.0153899 0.0153491 0.0161388 0.0153899 0.0153326 0.0161388 0.0184541 0.0104801 0.0131019 0.0133491 0.0129594 0.0131019 0.0153491 0.0129594 0.0127567 0.0133491 0.0129594 0.0100638 0.0130177 0.0129594 0.0127567 0.0130177 0.0160062 0.0185393 0.0164232 0.0162223 0.0162738 0.0164232 0.0154217 0.0162738 0.0149886 0.0162223 0.0162738 0.0184539 0.0161153 0.0162738 0.0149886 0.0161153 0.014671 0.0154217 0.0134626 0.0149886 0.0136791 0.0134626 0.0101487 0.0136791 0.0138344 0.0149886 0.0136791 0.014671 0.0132329 0.0136791 0.0138344 0.0132329 0.0106091 0.0184539 0.0161153 0.0153019 0.015291 0.0161153 0.014671 0.015291 0.0141108 0.0153019 0.015291 0.016882 0.0146648 0.015291 0.0141108 0.0146648 0.0133865 0.014671 0.0132329 0.0141108 0.0129567 0.0132329 0.0106091 0.0129567 0.0130527 0.0141108 0.0129567 0.0133865 0.0121903 0.0129567 0.0130527 0.0121903 0.00991094 0.016882 0.0146648 0.013547 0.0134833 0.0146648 0.0133865 0.0134833 0.0125914 0.013547 0.0134833 0.0140877 0.0130062 0.0134833 0.0125914 0.0130062 0.0119195 0.0133865 0.0121903 0.0125914 0.011696 0.0121903 0.00991094 0.011696 0.0117587 0.0125914 0.011696 0.0119195 0.0105946 0.011696 0.0117587 0.0105946 0.00877975 0.0119195 0.0105946 0.00928712 0.0093425 0.0105946 0.00877975 0.0093425 0.00975897 0.00928712 0.0093425 0.0100969 0.00882819 0.0093425 0.00975897 0.00882819 0.00669857 
SCALARS y_displacement double 1
LOOKUP_TABLE default